# vtk DataFile Version 4.2
Incompressible Euler
ASCII
 
DATASET UNSTRUCTURED_GRID
POINTS  2601 DOUBLE
   0.0000000000000000        0.0000000000000000        0.0000000000000000     
  2.00000000000000004E-002   0.0000000000000000        0.0000000000000000     
  4.00000000000000008E-002   0.0000000000000000        0.0000000000000000     
  5.99999999999999978E-002   0.0000000000000000        0.0000000000000000     
  8.00000000000000017E-002   0.0000000000000000        0.0000000000000000     
  0.10000000000000001        0.0000000000000000        0.0000000000000000     
  0.12000000000000000        0.0000000000000000        0.0000000000000000     
  0.14000000000000001        0.0000000000000000        0.0000000000000000     
  0.16000000000000000        0.0000000000000000        0.0000000000000000     
  0.17999999999999999        0.0000000000000000        0.0000000000000000     
  0.20000000000000001        0.0000000000000000        0.0000000000000000     
  0.22000000000000000        0.0000000000000000        0.0000000000000000     
  0.23999999999999999        0.0000000000000000        0.0000000000000000     
  0.26000000000000001        0.0000000000000000        0.0000000000000000     
  0.28000000000000003        0.0000000000000000        0.0000000000000000     
  0.29999999999999999        0.0000000000000000        0.0000000000000000     
  0.32000000000000001        0.0000000000000000        0.0000000000000000     
  0.34000000000000002        0.0000000000000000        0.0000000000000000     
  0.35999999999999999        0.0000000000000000        0.0000000000000000     
  0.38000000000000000        0.0000000000000000        0.0000000000000000     
  0.40000000000000002        0.0000000000000000        0.0000000000000000     
  0.41999999999999998        0.0000000000000000        0.0000000000000000     
  0.44000000000000000        0.0000000000000000        0.0000000000000000     
  0.46000000000000002        0.0000000000000000        0.0000000000000000     
  0.47999999999999998        0.0000000000000000        0.0000000000000000     
  0.50000000000000000        0.0000000000000000        0.0000000000000000     
  0.52000000000000002        0.0000000000000000        0.0000000000000000     
  0.54000000000000004        0.0000000000000000        0.0000000000000000     
  0.56000000000000005        0.0000000000000000        0.0000000000000000     
  0.57999999999999996        0.0000000000000000        0.0000000000000000     
  0.59999999999999998        0.0000000000000000        0.0000000000000000     
  0.62000000000000000        0.0000000000000000        0.0000000000000000     
  0.64000000000000001        0.0000000000000000        0.0000000000000000     
  0.66000000000000003        0.0000000000000000        0.0000000000000000     
  0.68000000000000005        0.0000000000000000        0.0000000000000000     
  0.70000000000000007        0.0000000000000000        0.0000000000000000     
  0.71999999999999997        0.0000000000000000        0.0000000000000000     
  0.73999999999999999        0.0000000000000000        0.0000000000000000     
  0.76000000000000001        0.0000000000000000        0.0000000000000000     
  0.78000000000000003        0.0000000000000000        0.0000000000000000     
  0.80000000000000004        0.0000000000000000        0.0000000000000000     
  0.82000000000000006        0.0000000000000000        0.0000000000000000     
  0.83999999999999997        0.0000000000000000        0.0000000000000000     
  0.85999999999999999        0.0000000000000000        0.0000000000000000     
  0.88000000000000000        0.0000000000000000        0.0000000000000000     
  0.90000000000000002        0.0000000000000000        0.0000000000000000     
  0.92000000000000004        0.0000000000000000        0.0000000000000000     
  0.94000000000000006        0.0000000000000000        0.0000000000000000     
  0.95999999999999996        0.0000000000000000        0.0000000000000000     
  0.97999999999999998        0.0000000000000000        0.0000000000000000     
   1.0000000000000000        0.0000000000000000        0.0000000000000000     
   0.0000000000000000       2.00000000000000004E-002   0.0000000000000000     
  2.00000000000000004E-002  2.00000000000000004E-002   0.0000000000000000     
  4.00000000000000008E-002  2.00000000000000004E-002   0.0000000000000000     
  5.99999999999999978E-002  2.00000000000000004E-002   0.0000000000000000     
  8.00000000000000017E-002  2.00000000000000004E-002   0.0000000000000000     
  0.10000000000000001       2.00000000000000004E-002   0.0000000000000000     
  0.12000000000000000       2.00000000000000004E-002   0.0000000000000000     
  0.14000000000000001       2.00000000000000004E-002   0.0000000000000000     
  0.16000000000000000       2.00000000000000004E-002   0.0000000000000000     
  0.17999999999999999       2.00000000000000004E-002   0.0000000000000000     
  0.20000000000000001       2.00000000000000004E-002   0.0000000000000000     
  0.22000000000000000       2.00000000000000004E-002   0.0000000000000000     
  0.23999999999999999       2.00000000000000004E-002   0.0000000000000000     
  0.26000000000000001       2.00000000000000004E-002   0.0000000000000000     
  0.28000000000000003       2.00000000000000004E-002   0.0000000000000000     
  0.29999999999999999       2.00000000000000004E-002   0.0000000000000000     
  0.32000000000000001       2.00000000000000004E-002   0.0000000000000000     
  0.34000000000000002       2.00000000000000004E-002   0.0000000000000000     
  0.35999999999999999       2.00000000000000004E-002   0.0000000000000000     
  0.38000000000000000       2.00000000000000004E-002   0.0000000000000000     
  0.40000000000000002       2.00000000000000004E-002   0.0000000000000000     
  0.41999999999999998       2.00000000000000004E-002   0.0000000000000000     
  0.44000000000000000       2.00000000000000004E-002   0.0000000000000000     
  0.46000000000000002       2.00000000000000004E-002   0.0000000000000000     
  0.47999999999999998       2.00000000000000004E-002   0.0000000000000000     
  0.50000000000000000       2.00000000000000004E-002   0.0000000000000000     
  0.52000000000000002       2.00000000000000004E-002   0.0000000000000000     
  0.54000000000000004       2.00000000000000004E-002   0.0000000000000000     
  0.56000000000000005       2.00000000000000004E-002   0.0000000000000000     
  0.57999999999999996       2.00000000000000004E-002   0.0000000000000000     
  0.59999999999999998       2.00000000000000004E-002   0.0000000000000000     
  0.62000000000000000       2.00000000000000004E-002   0.0000000000000000     
  0.64000000000000001       2.00000000000000004E-002   0.0000000000000000     
  0.66000000000000003       2.00000000000000004E-002   0.0000000000000000     
  0.68000000000000005       2.00000000000000004E-002   0.0000000000000000     
  0.70000000000000007       2.00000000000000004E-002   0.0000000000000000     
  0.71999999999999997       2.00000000000000004E-002   0.0000000000000000     
  0.73999999999999999       2.00000000000000004E-002   0.0000000000000000     
  0.76000000000000001       2.00000000000000004E-002   0.0000000000000000     
  0.78000000000000003       2.00000000000000004E-002   0.0000000000000000     
  0.80000000000000004       2.00000000000000004E-002   0.0000000000000000     
  0.82000000000000006       2.00000000000000004E-002   0.0000000000000000     
  0.83999999999999997       2.00000000000000004E-002   0.0000000000000000     
  0.85999999999999999       2.00000000000000004E-002   0.0000000000000000     
  0.88000000000000000       2.00000000000000004E-002   0.0000000000000000     
  0.90000000000000002       2.00000000000000004E-002   0.0000000000000000     
  0.92000000000000004       2.00000000000000004E-002   0.0000000000000000     
  0.94000000000000006       2.00000000000000004E-002   0.0000000000000000     
  0.95999999999999996       2.00000000000000004E-002   0.0000000000000000     
  0.97999999999999998       2.00000000000000004E-002   0.0000000000000000     
   1.0000000000000000       2.00000000000000004E-002   0.0000000000000000     
   0.0000000000000000       4.00000000000000008E-002   0.0000000000000000     
  2.00000000000000004E-002  4.00000000000000008E-002   0.0000000000000000     
  4.00000000000000008E-002  4.00000000000000008E-002   0.0000000000000000     
  5.99999999999999978E-002  4.00000000000000008E-002   0.0000000000000000     
  8.00000000000000017E-002  4.00000000000000008E-002   0.0000000000000000     
  0.10000000000000001       4.00000000000000008E-002   0.0000000000000000     
  0.12000000000000000       4.00000000000000008E-002   0.0000000000000000     
  0.14000000000000001       4.00000000000000008E-002   0.0000000000000000     
  0.16000000000000000       4.00000000000000008E-002   0.0000000000000000     
  0.17999999999999999       4.00000000000000008E-002   0.0000000000000000     
  0.20000000000000001       4.00000000000000008E-002   0.0000000000000000     
  0.22000000000000000       4.00000000000000008E-002   0.0000000000000000     
  0.23999999999999999       4.00000000000000008E-002   0.0000000000000000     
  0.26000000000000001       4.00000000000000008E-002   0.0000000000000000     
  0.28000000000000003       4.00000000000000008E-002   0.0000000000000000     
  0.29999999999999999       4.00000000000000008E-002   0.0000000000000000     
  0.32000000000000001       4.00000000000000008E-002   0.0000000000000000     
  0.34000000000000002       4.00000000000000008E-002   0.0000000000000000     
  0.35999999999999999       4.00000000000000008E-002   0.0000000000000000     
  0.38000000000000000       4.00000000000000008E-002   0.0000000000000000     
  0.40000000000000002       4.00000000000000008E-002   0.0000000000000000     
  0.41999999999999998       4.00000000000000008E-002   0.0000000000000000     
  0.44000000000000000       4.00000000000000008E-002   0.0000000000000000     
[...]
POINT_DATA  2601
SCALARS pressure DOUBLE
LOOKUP_TABLE default
  0.99990765026962425     
  0.99995652193139595     
   1.0000189357173097     
   1.0001080645640223     
   1.0002274007217200     
   1.0003683203583718     
   1.0005209402162951     
   1.0006708240331867     
   1.0007896548025148     
   1.0008553919551868     
   1.0008236043400747     
   1.0007413832441017     
   1.0006000303998273     
   1.0004253423953988     
   1.0002547397185055     
   1.0001059542082613     
  0.99999961056466824     
  0.99994485680878786     
  0.99994138521933340     
  0.99996367658560203     
  0.99999160398523557     
  0.99999731722322294     
   1.0000007509042887     
   1.0000008881098601     
   1.0000001655319652     
   1.0000000127355841     
  0.99999997584370692     
  0.99999999644968374     
   1.0000000003593537     
   1.0000000003230363     
   1.0000000000192804     
  0.99999999998624345     
  0.99999999999872002     
   1.0000000000005049     
   1.0000000000000393     
  0.99999999999998734     
  0.99999999999999611     
   1.0000000000000000     
   1.0000000000000000     
   1.0000000000000000     
   1.0000000000000000     
   1.0000000000000000     
   1.0000000000000000     
   1.0000000000000000     
   1.0000000000000000     
   1.0000000000000000     
  0.99999999999999978     
   1.0000000000000000     
  0.99999999999999256     
  0.99999999999999478     
  0.99999999999997102     
   1.0013580358021685     
   1.0015054734899547     
   1.0018437991353368     
   1.0025186374489197     
   1.0034351023113364     
   1.0045875951994252     
   1.0059105046725090     
   1.0072780251890263     
   1.0084736893994481     
   1.0092484618777655     
   1.0094088610508749     
   1.0089382993202032     
   1.0077518050884406     
   1.0061654740065575     
   1.0044253000527328     
   1.0028357026894041     
   1.0016107158701471     
   1.0007969862679114     
   1.0003300709337046     
   1.0000911296049664     
  0.99998791002543508     
  0.99997477499803400     
  0.99998763918410272     
  0.99999718069749965     
   1.0000002793241949     
   1.0000004435410264     
   1.0000000927318242     
  0.99999999264726602     
  0.99999999251148530     
  0.99999999910169612     
   1.0000000003441594     
   1.0000000000492051     
  0.99999999998869693     
  0.99999999999821720     
   1.0000000000003120     
   1.0000000000000395     
  0.99999999999999167     
  0.99999999999999822     
   1.0000000000000000     
   1.0000000000000000     
   1.0000000000000000     
   1.0000000000000000     
   1.0000000000000000     
   1.0000000000000000     
   1.0000000000000000     
   1.0000000000000000     
   1.0000000000000000     
  0.99999999999999978     
  0.99999999999999800     
   1.0000000000000000     
  0.99999999999998634     
   1.0130034773968688     
   1.0119504412155615     
   1.0139567523553170     
   1.0186930146857434     
   1.0257959092172566     
   1.0353320782460314     
   1.0470219384142538     
   1.0602515464268709     
   1.0737018491061157     
   1.0851256151246655     
   1.0923164685606384     
   1.0932209825607382     
   1.0874215034212706     
   1.0752143337912321     
   1.0592461835879250     
   1.0421261508358806     
   1.0266216203936425     
   1.0147468482767175     
   1.0070864790792642     
   1.0029340108353180     
   1.0010246445533086     
   1.0002820551050422     
   1.0000259440318227     
  0.99997530095867149     
  0.99998663999127790     
  0.99999760299557283     
   1.0000005492139661     
   1.0000002933624250     
   1.0000000361620400     
  0.99999998536175438     
  0.99999999766123060     
   1.0000000004173093     
   1.0000000000778897     
  0.99999999998873346     
  0.99999999999758038     
   1.0000000000003171     
   1.0000000000000502     
  0.99999999999998956     
  0.99999999999999845     
   1.0000000000000000     
   1.0000000000000000     
   1.0000000000000000     
   1.0000000000000000     
   1.0000000000000000     
   1.0000000000000000     
   1.0000000000000000     
   1.0000000000000000     
   1.0000000000000000     
   1.0000000000000000     
   1.0000000000000000     
   1.0000000000000000     
   1.0969882764234193     
   1.0865658313262943     
   1.0966026647015212     
   1.1276364024616981     
   1.1791886936104310     
   1.2502495270726244     
   1.3356379882202198     
   1.4275787249786627     
   1.5170941642207902     
   1.5961576964807724     
   1.6576073995521756     
   1.6924224121071718     
   1.6952503637432670     
   1.6655083009810283     
   1.6001590572794662     
   1.4976223080583702     
   1.3666800822318526     
   1.2302714106989991     
   1.1206480673647501     
   1.0548458691777867     
   1.0219982350085119     
   1.0072803711124407     
   1.0019989002780056     
   1.0004368258365923     
   1.0000393718522633     
  0.99997609448808289     
  0.99999124489584512     
  0.99999898682553934     
   1.0000005768066917     
   1.0000001012597719     
  0.99999998551261482     
  0.99999999579717036     
   1.0000000002386167     
   1.0000000001161335     
  0.99999999999244749     
  0.99999999999727252     
   1.0000000000003055     
   1.0000000000000604     
  0.99999999999999045     
  0.99999999999999845     
   1.0000000000000000     
   1.0000000000000000     
   1.0000000000000000     
   1.0000000000000000     
   1.0000000000000000     
   1.0000000000000000     
   1.0000000000000000     
   1.0000000000000000     
   1.0000000000000000     
   1.0000000000000000     
   1.0000000000000000     
   1.5747909934962758     
   1.5171041538537970     
   1.5477195943861348     
   1.6263044287639778     
   1.7393215751413802     
   1.8654651720254354     
   1.9876175533378733     
   2.0979710809088719     
   2.1971713850666519     
   2.2860783352694880     
   2.3642576262518933     
   2.4290345884660631     
   2.4793153424761742     
   2.5122540236029449     
   2.5232667989472390     
   2.5044899338558175     
   2.4385256255251422     
   2.3011968694527694     
   2.0705485074363783     
   1.7496813199487442     
   1.3984505256700226     
   1.1457778304140966     
   1.0443000566785638     
   1.0114904666046911     
   1.0024037810917408     
   1.0004089645301171     
   1.0000116665100347     
  0.99997870651674059     
  0.99999584108526651     
   1.0000004786587855     
   1.0000002150579312     
   1.0000000014457959     
  0.99999999174579868     
  0.99999999977731990     
   1.0000000002112228     
  0.99999999999818456     
  0.99999999999654532     
   1.0000000000002653     
   1.0000000000000617     
  0.99999999999999056     
  0.99999999999999878     
   1.0000000000000000     
   1.0000000000000000     
   1.0000000000000000     
   1.0000000000000000     
   1.0000000000000000     
   1.0000000000000000     
   1.0000000000000000     
   1.0000000000000000     
   1.0000000000000000     
   1.0000000000000000     
   2.1281280403782352     
   2.1033385659304913     
   2.1277284570870125     
   2.1497870824548344     
   2.1912096921547444     
   2.2509339183737143     
   2.3115994265588884     
   2.3686398441129777     
   2.4250115057960802     
   2.4837370850654339     
   2.5436300447838374     
   2.6045120118095699     
   2.6674480764185469     
   2.7289408465518239     
   2.7876488437620242     
   2.8413405302603594     
   2.8857622453059628     
   2.9141192249622700     
   2.9093391684537706     
   2.8406531607399335     
   2.6558554069192430     
   2.2903097140697999     
   1.7489334220214836     
   1.2512014572824455     
   1.0557308653552904     
   1.0112726727224568     
   1.0018318488238056     
   1.0002138818890962     
  0.99997780387913726     
  0.99998891461002826     
  0.99999952637657574     
   1.0000004469787687     
   1.0000000396932931     
  0.99999998663063439     
  0.99999999921742400     
   1.0000000002877496     
   1.0000000000049913     
  0.99999999999558331     
   1.0000000000002245     
   1.0000000000000606     
  0.99999999999999090     
  0.99999999999999900     
   1.0000000000000000     
   1.0000000000000000     
   1.0000000000000000     
   1.0000000000000000     
   1.0000000000000000     
   1.0000000000000000     
   1.0000000000000000     
   1.0000000000000000     
  0.99999999999999867     
   2.3254402434218018     
   2.3313473110136536     
   2.3487043433991879     
   2.3237618687741173     
   2.3065930027732451     
   2.3221503169269586     
   2.3467165535104768     
   2.3724709102364692     
   2.4016287511329297     
   2.4364646163025498     
   2.4785238354842924     
   2.5322115548183897     
   2.5936483191994482     
   2.6609000735440183     
   2.7353095429715180     
   2.8151815202281534     
   2.8962187536965009     
   2.9772944775923778     
   3.0541596328457010     
   3.1188225038114950     
   3.1617080257553454     
   3.1468464777659295     
   2.9997283220117676     
   2.6104640423056407     
   1.9147291016141257     
   1.2531191940324045     
   1.0436977909969822     
   1.0066113528290150     
   1.0007580882608764     
   1.0000282195148829     
  0.99997938041659296     
  0.99999761168231904     
   1.0000006686071199     
   1.0000000715760131     
  0.99999998325760886     
  0.99999999882327373     
   1.0000000003418441     
   1.0000000000088891     
  0.99999999999560307     
   1.0000000000002369     
   1.0000000000000562     
  0.99999999999999190     
  0.99999999999999922     
   1.0000000000000000     
   1.0000000000000000     
   1.0000000000000000     
   1.0000000000000000     
   1.0000000000000000     
   1.0000000000000000     
   1.0000000000000000     
   1.0000000000000000     
   2.3628425870105172     
   2.3675392498250125     
   2.3733916281400527     
   2.3339051237918849     
   2.2895850382934868     
   2.2724097201490219     
   2.2585725545203430     
   2.2470148271694437     
   2.2439771581389660     
   2.2538079239991213     
   2.2775650401830849     
   2.3120006040559420     
   2.3557222832059237     
   2.4146506072430269     
   2.4898685402156064     
   2.5834482152093856     
   2.6965842991521587     
   2.8231899206749254     
   2.9537849020298013     
   3.0787379224895060     
   3.1902294957635990     
   3.2854295741062178     
   3.3538307974391897     
   3.3571155777526007     
   3.1922902163453784     
   2.6820991983557416     
   1.7851478438408248     
   1.1458286319804254     
   1.0196727734559505     
   1.0020633098691047     
   1.0001409859486110     
  0.99997291540818178     
  0.99999564628949744     
   1.0000007361085852     
   1.0000000941388778     
  0.99999998192093165     
  0.99999999864491251     
   1.0000000003614642     
   1.0000000000084297     
  0.99999999999615641     
   1.0000000000002556     
   1.0000000000000488     
  0.99999999999999301     
  0.99999999999999944     
   1.0000000000000000     
   1.0000000000000000     
   1.0000000000000000     
   1.0000000000000000     
   1.0000000000000000     
   1.0000000000000000     
   1.0000000000000000     
   2.3070810529371348     
   2.3118494839152071     
   2.2952210414473995     
   2.2351139459620404     
   2.1610843326795459     
   2.1049887739397337     
   2.0508572809310333     
   2.0048290841268974     
   1.9728723231329059     
   1.9562665352147746     
   1.9497485970637889     
   1.9563214788387322     
   1.9816872923193414     
   2.0299296085104443     
   2.1009469762103650     
   2.1966118807555111     
   2.3184144365186756     
   2.4670897501342397     
   2.6399024259630015     
   2.8286537343171845     
   3.0178089459676074     
   3.1934681387442776     
   3.3412608182778074     
   3.4558707711196845     
   3.5235856919845783     
   3.4993649536016398     
   3.2173466536953876     
   2.4285442599286111     
   1.4065645699262550     
   1.0476731621323911     
   1.0045222089695183     
   1.0003050818032837     
  0.99997459941552658     
  0.99999494169637593     
   1.0000007516105234     
   1.0000001045830735     
  0.99999998237157794     
  0.99999999871856526     
   1.0000000003221887     
   1.0000000000026077     
  0.99999999999695754     
   1.0000000000002567     
   1.0000000000000364     
  0.99999999999999423     
  0.99999999999999967     
   1.0000000000000000     
   1.0000000000000000     
   1.0000000000000000     
   1.0000000000000000     
   1.0000000000000000     
   1.0000000000000000     
   2.1256527356623947     
   2.1198115741297348     
   2.0931600595762623     
   2.0258252803177914     
   1.9317269787270051     
   1.8466114070343991     
   1.7674280939240092     
   1.6964077157434840     
   1.6386420691203012     
   1.5974889447792140     
   1.5708697509261613     
   1.5642471153936344     
   1.5805724959564786     
   1.6240534688805361     
   1.6903929432747471     
   1.7790658657287381     
   1.8931442196021728     
   2.0354130827694363     
   2.2053205480191331     
   2.4026752369621209     
   2.6282823853573904     
   2.8756251504622745     
   3.1207637686363152     
   3.3372968829411613     
   3.5074828439297989     
   3.6154006324535315     
   3.6518575152987522     
   3.5265594435358878     
   2.9378516369985634     
   1.7758923370240389     
   1.0958549556932375     
   1.0080158298431552     
   1.0004908148227376     
  0.99998157923672637     
  0.99999499237505607     
   1.0000007401922377     
   1.0000000962857332     
  0.99999998315929950     
  0.99999999904939962     
   1.0000000002271230     
  0.99999999999569456     
  0.99999999999785760     
   1.0000000000002502     
   1.0000000000000249     
  0.99999999999999556     
  0.99999999999999989     
   1.0000000000000000     
   1.0000000000000000     
   1.0000000000000000     
   1.0000000000000000     
   1.0000000000000000     
   1.8957827553561462     
   1.8766662721578198     
   1.8462705492373952     
   1.7724682267277094     
   1.6590094100922776     
   1.5483645882511672     
   1.4468858094143076     
   1.3577580861173479     
   1.2902381366893274     
   1.2441533305310433     
   1.2186703447572043     
   1.2162450745599267     
   1.2395486942203351     
   1.2885145146335104     
   1.3566617533468581     
   1.4423922327861178     
   1.5499500985891923     
   1.6814477836557518     
   1.8379234204141606     
   2.0198484029397417     
   2.2307370606740542     
   2.4707721072797351     
   2.7413490351764160     
   3.0261279686408304     
   3.3060339516200279     
   3.5371182336076328     
   3.6801256049014097     
   3.7461929672377181     
   3.7031273270154426     
   3.2698468132954042     
   2.1149241804656591     
   1.1568270979882509     
   1.0113995426758711     
   1.0006193090450908     
  0.99998544685788648     
  0.99999514792406619     
   1.0000006727228821     
   1.0000000750337257     
  0.99999998593407580     
  0.99999999949954788     
   1.0000000001645806     
  0.99999999999265898     
  0.99999999999844513     
   1.0000000000002065     
   1.0000000000000129     
  0.99999999999999689     
   1.0000000000000000     
   1.0000000000000000     
   1.0000000000000000     
   1.0000000000000000     
   1.0000000000000000     
   1.6328077088481909     
   1.6047884031944557     
   1.5638202575630697     
   1.4757429998925922     
   1.3504075924089043     
   1.2277762809281889     
   1.1202208974963914     
   1.0352181163894627     
  0.97477633540176001     
  0.94200380072753642     
  0.93607797466859211     
  0.95188790546257451     
  0.99074750350848462     
   1.0510077229148325     
   1.1282775382319727     
   1.2205538276005603     
   1.3291909557691368     
   1.4575117825634902     
   1.6076560513249811     
   1.7800648690551539     
   1.9730269928394528     
   2.1846968757467806     
   2.4184261704005694     
   2.6802726395165615     
   2.9751162156452882     
   3.2841043359065361     
   3.5599966422080049     
   3.7390277017633817     
   3.8262013848032583     
   3.8163771283936030     
   3.4713832597256822     
   2.3431367612525462     
   1.1999751663301861     
   1.0127782153457381     
   1.0006058272974629     
  0.99998182665822188     
  0.99999564648034445     
   1.0000006365093776     
   1.0000000481487299     
  0.99999998985052319     
  0.99999999998931965     
   1.0000000000922784     
  0.99999999999116163     
  0.99999999999904565     
   1.0000000000001430     
   1.0000000000000038     
  0.99999999999999845     
   1.0000000000000000     
   1.0000000000000000     
   1.0000000000000000     
   1.0000000000000000     
   1.3314255266432005     
   1.2905108904234921     
   1.2287605390155549     
   1.1378960686286357     
   1.0249532272460311     
  0.91471713454479842     
  0.82327932409657623     
  0.76091797288748941     
  0.72875364761168604     
  0.72179604273710507     
  0.73713776216521787     
  0.77410797537353937     
  0.82946946896384555     
  0.90073562563483567     
  0.98671404699621301     
   1.0865275997921295     
   1.2020762323947949     
   1.3377199829543938     
   1.4926065132151001     
   1.6657911656468769     
   1.8508937167542350     
   2.0427188619650152     
   2.2427342832474926     
   2.4581640850510271     
   2.6984138200926844     
   2.9703813593184556     
   3.2726957995178596     
   3.5718210835769848     
   3.7929202999979341     
   3.9031163943803344     
   3.9074789869921149     
   3.5922833785464792     
   2.4336508381072841     
   1.2024671809254857     
   1.0115070792264342     
   1.0004727337508352     
  0.99997765966541141     
  0.99999677187546998     
   1.0000005373821117     
   1.0000000202269292     
  0.99999999398740347     
   1.0000000002649498     
   1.0000000000522713     
  0.99999999999258826     
  0.99999999999957756     
   1.0000000000000797     
  0.99999999999999878     
  0.99999999999999978     
   1.0000000000000000     
   1.0000000000000000     
   1.0000000000000000     
   1.0184188504217930     
  0.96987508627492514     
  0.89861422307023642     
  0.81541344324088982     
  0.72597825810056438     
  0.64188815738534177     
  0.59295180041107498     
  0.56754191768206841     
  0.56637434111172136     
  0.58217111717797321     
  0.61645882338852942     
  0.67002222759937269     
  0.73908134538156833     
  0.82168114083973476     
  0.92003723068614396     
   1.0306867588868416     
   1.1588058117052891     
   1.3047453475437218     
   1.4612824077550255     
   1.6327605786382695     
   1.8136620793474263     
   1.9971452228275990     
   2.1807387212285607     
   2.3651730450142852     
   2.5555319350153978     
   2.7636419371724736     
   3.0067411781376814     
   3.2917412877825236     
   3.5956208385160773     
   3.8497463826526834     
   3.9754658288623728     
   3.9742897088418156     
   3.6338730131198318     
   2.3830658876128221     
   1.1656122886132496     
   1.0083096855738078     
   1.0002955783771110     
  0.99997632947053061     
  0.99999811070658018     
   1.0000003690214458     
  0.99999999805279849     
  0.99999999763917069     
   1.0000000003162708     
   1.0000000000266349     
  0.99999999999565425     
  0.99999999999996181     
   1.0000000000000280     
  0.99999999999999800     
  0.99999999999999978     
   1.0000000000000000     
   1.0000000000000000     
  0.73317577056061822     
  0.69475806355388725     
  0.63018319166951531     
  0.55780611383253920     
  0.49551991604106888     
  0.45935484995072551     
  0.44780344588465149     
  0.45385170098599809     
  0.47410869744374556     
  0.51046050861174275     
  0.56027381799330789     
  0.62500217419862847     
  0.70378991164023719     
  0.79281601336760987     
  0.89800454725957501     
   1.0155373226975644     
   1.1566613164114277     
   1.3211733979058926     
   1.4894333739057732     
   1.6490030613766460     
   1.8191843400111258     
   1.9953959780057073     
   2.1724937117083414     
   2.3465549815518161     