# vtk DataFile Version 4.2
Incompressible Euler
ASCII
 
DATASET UNSTRUCTURED_GRID
POINTS  2601 DOUBLE
   0.0000000000000000        0.0000000000000000        0.0000000000000000     
  2.00000000000000004E-002   0.0000000000000000        0.0000000000000000     
  4.00000000000000008E-002   0.0000000000000000        0.0000000000000000     
  5.99999999999999978E-002   0.0000000000000000        0.0000000000000000     
  8.00000000000000017E-002   0.0000000000000000        0.0000000000000000     
  0.10000000000000001        0.0000000000000000        0.0000000000000000     
  0.12000000000000000        0.0000000000000000        0.0000000000000000     
  0.14000000000000001        0.0000000000000000        0.0000000000000000     
  0.16000000000000000        0.0000000000000000        0.0000000000000000     
  0.17999999999999999        0.0000000000000000        0.0000000000000000     
  0.20000000000000001        0.0000000000000000        0.0000000000000000     
  0.22000000000000000        0.0000000000000000        0.0000000000000000     
  0.23999999999999999        0.0000000000000000        0.0000000000000000     
  0.26000000000000001        0.0000000000000000        0.0000000000000000     
  0.28000000000000003        0.0000000000000000        0.0000000000000000     
  0.29999999999999999        0.0000000000000000        0.0000000000000000     
  0.32000000000000001        0.0000000000000000        0.0000000000000000     
  0.34000000000000002        0.0000000000000000        0.0000000000000000     
  0.35999999999999999        0.0000000000000000        0.0000000000000000     
  0.38000000000000000        0.0000000000000000        0.0000000000000000     
  0.40000000000000002        0.0000000000000000        0.0000000000000000     
  0.41999999999999998        0.0000000000000000        0.0000000000000000     
  0.44000000000000000        0.0000000000000000        0.0000000000000000     
  0.46000000000000002        0.0000000000000000        0.0000000000000000     
  0.47999999999999998        0.0000000000000000        0.0000000000000000     
  0.50000000000000000        0.0000000000000000        0.0000000000000000     
  0.52000000000000002        0.0000000000000000        0.0000000000000000     
  0.54000000000000004        0.0000000000000000        0.0000000000000000     
  0.56000000000000005        0.0000000000000000        0.0000000000000000     
  0.57999999999999996        0.0000000000000000        0.0000000000000000     
  0.59999999999999998        0.0000000000000000        0.0000000000000000     
  0.62000000000000000        0.0000000000000000        0.0000000000000000     
  0.64000000000000001        0.0000000000000000        0.0000000000000000     
  0.66000000000000003        0.0000000000000000        0.0000000000000000     
  0.68000000000000005        0.0000000000000000        0.0000000000000000     
  0.70000000000000007        0.0000000000000000        0.0000000000000000     
  0.71999999999999997        0.0000000000000000        0.0000000000000000     
  0.73999999999999999        0.0000000000000000        0.0000000000000000     
  0.76000000000000001        0.0000000000000000        0.0000000000000000     
  0.78000000000000003        0.0000000000000000        0.0000000000000000     
  0.80000000000000004        0.0000000000000000        0.0000000000000000     
  0.82000000000000006        0.0000000000000000        0.0000000000000000     
  0.83999999999999997        0.0000000000000000        0.0000000000000000     
  0.85999999999999999        0.0000000000000000        0.0000000000000000     
  0.88000000000000000        0.0000000000000000        0.0000000000000000     
  0.90000000000000002        0.0000000000000000        0.0000000000000000     
  0.92000000000000004        0.0000000000000000        0.0000000000000000     
  0.94000000000000006        0.0000000000000000        0.0000000000000000     
  0.95999999999999996        0.0000000000000000        0.0000000000000000     
  0.97999999999999998        0.0000000000000000        0.0000000000000000     
   1.0000000000000000        0.0000000000000000        0.0000000000000000     
   0.0000000000000000       2.00000000000000004E-002   0.0000000000000000     
  2.00000000000000004E-002  2.00000000000000004E-002   0.0000000000000000     
  4.00000000000000008E-002  2.00000000000000004E-002   0.0000000000000000     
  5.99999999999999978E-002  2.00000000000000004E-002   0.0000000000000000     
  8.00000000000000017E-002  2.00000000000000004E-002   0.0000000000000000     
  0.10000000000000001       2.00000000000000004E-002   0.0000000000000000     
  0.12000000000000000       2.00000000000000004E-002   0.0000000000000000     
  0.14000000000000001       2.00000000000000004E-002   0.0000000000000000     
  0.16000000000000000       2.00000000000000004E-002   0.0000000000000000     
  0.17999999999999999       2.00000000000000004E-002   0.0000000000000000     
  0.20000000000000001       2.00000000000000004E-002   0.0000000000000000     
  0.22000000000000000       2.00000000000000004E-002   0.0000000000000000     
  0.23999999999999999       2.00000000000000004E-002   0.0000000000000000     
  0.26000000000000001       2.00000000000000004E-002   0.0000000000000000     
  0.28000000000000003       2.00000000000000004E-002   0.0000000000000000     
  0.29999999999999999       2.00000000000000004E-002   0.0000000000000000     
  0.32000000000000001       2.00000000000000004E-002   0.0000000000000000     
  0.34000000000000002       2.00000000000000004E-002   0.0000000000000000     
  0.35999999999999999       2.00000000000000004E-002   0.0000000000000000     
  0.38000000000000000       2.00000000000000004E-002   0.0000000000000000     
  0.40000000000000002       2.00000000000000004E-002   0.0000000000000000     
  0.41999999999999998       2.00000000000000004E-002   0.0000000000000000     
  0.44000000000000000       2.00000000000000004E-002   0.0000000000000000     
  0.46000000000000002       2.00000000000000004E-002   0.0000000000000000     
  0.47999999999999998       2.00000000000000004E-002   0.0000000000000000     
  0.50000000000000000       2.00000000000000004E-002   0.0000000000000000     
  0.52000000000000002       2.00000000000000004E-002   0.0000000000000000     
  0.54000000000000004       2.00000000000000004E-002   0.0000000000000000     
  0.56000000000000005       2.00000000000000004E-002   0.0000000000000000     
  0.57999999999999996       2.00000000000000004E-002   0.0000000000000000     
  0.59999999999999998       2.00000000000000004E-002   0.0000000000000000     
  0.62000000000000000       2.00000000000000004E-002   0.0000000000000000     
  0.64000000000000001       2.00000000000000004E-002   0.0000000000000000     
  0.66000000000000003       2.00000000000000004E-002   0.0000000000000000     
  0.68000000000000005       2.00000000000000004E-002   0.0000000000000000     
  0.70000000000000007       2.00000000000000004E-002   0.0000000000000000     
  0.71999999999999997       2.00000000000000004E-002   0.0000000000000000     
  0.73999999999999999       2.00000000000000004E-002   0.0000000000000000     
  0.76000000000000001       2.00000000000000004E-002   0.0000000000000000     
  0.78000000000000003       2.00000000000000004E-002   0.0000000000000000     
  0.80000000000000004       2.00000000000000004E-002   0.0000000000000000     
  0.82000000000000006       2.00000000000000004E-002   0.0000000000000000     
  0.83999999999999997       2.00000000000000004E-002   0.0000000000000000     
  0.85999999999999999       2.00000000000000004E-002   0.0000000000000000     
  0.88000000000000000       2.00000000000000004E-002   0.0000000000000000     
  0.90000000000000002       2.00000000000000004E-002   0.0000000000000000     
  0.92000000000000004       2.00000000000000004E-002   0.0000000000000000     
  0.94000000000000006       2.00000000000000004E-002   0.0000000000000000     
  0.95999999999999996       2.00000000000000004E-002   0.0000000000000000     
  0.97999999999999998       2.00000000000000004E-002   0.0000000000000000     
   1.0000000000000000       2.00000000000000004E-002   0.0000000000000000     
   0.0000000000000000       4.00000000000000008E-002   0.0000000000000000     
  2.00000000000000004E-002  4.00000000000000008E-002   0.0000000000000000     
  4.00000000000000008E-002  4.00000000000000008E-002   0.0000000000000000     
  5.99999999999999978E-002  4.00000000000000008E-002   0.0000000000000000     
  8.00000000000000017E-002  4.00000000000000008E-002   0.0000000000000000     
  0.10000000000000001       4.00000000000000008E-002   0.0000000000000000     
  0.12000000000000000       4.00000000000000008E-002   0.0000000000000000     
  0.14000000000000001       4.00000000000000008E-002   0.0000000000000000     
  0.16000000000000000       4.00000000000000008E-002   0.0000000000000000     
  0.17999999999999999       4.00000000000000008E-002   0.0000000000000000     
  0.20000000000000001       4.00000000000000008E-002   0.0000000000000000     
  0.22000000000000000       4.00000000000000008E-002   0.0000000000000000     
  0.23999999999999999       4.00000000000000008E-002   0.0000000000000000     
  0.26000000000000001       4.00000000000000008E-002   0.0000000000000000     
  0.28000000000000003       4.00000000000000008E-002   0.0000000000000000     
  0.29999999999999999       4.00000000000000008E-002   0.0000000000000000     
  0.32000000000000001       4.00000000000000008E-002   0.0000000000000000     
  0.34000000000000002       4.00000000000000008E-002   0.0000000000000000     
  0.35999999999999999       4.00000000000000008E-002   0.0000000000000000     
  0.38000000000000000       4.00000000000000008E-002   0.0000000000000000     
  0.40000000000000002       4.00000000000000008E-002   0.0000000000000000     
  0.41999999999999998       4.00000000000000008E-002   0.0000000000000000     
  0.44000000000000000       4.00000000000000008E-002   0.0000000000000000     
[...]
POINT_DATA  2601
SCALARS pressure DOUBLE
LOOKUP_TABLE default
  0.23641474111689015     
   2.2325508282454973     
   1.8340713354805962     
   1.9153558604445089     
   1.9324048083260799     
   1.9653930266992359     
   1.9660049074628267     
   2.0025847187075643     
   2.0028716926715746     
   2.0501829228090243     
   2.0501321490681965     
   2.1172315653421001     
   2.1171621711257775     
   2.2068484240205262     
   2.2065373566818729     
   2.3409227957386549     
   2.3409246911132939     
   2.4439300900272838     
   2.4437632582618312     
   2.5982908348199807     
   2.5977329195297330     
   2.7655975724955972     
   2.7649264900040649     
   3.5657145640960781     
   3.5444718754491626     
   4.8189830107833291     
   4.7512113553657720     
   5.6010185441794693     
   5.5671931304774516     
   6.6186016018110712     
   6.5898825471789761     
   7.5219392849694593     
   7.5170694131547844     
   8.5664746648612926     
   8.7500075644597732     
   8.3504393644858581     
   13.572740164638883     
   10.105324604609404     
   9.1453944439331156     
   4.3665247659454840     
   6.8014301582805983     
   6.3006730549096686     
   2.9092375033873652     
   2.5508913011699841     
   2.9808961300692496     
   2.9500898919632972     
   4.6546589177120632     
   3.7704577228807263     
   2.5751267773328843     
   1.3942905894384219     
   9.5487973517259359     
  0.95072270009317261     
  0.21596748791356477     
  0.35456195061561147     
  0.36501095276294915     
  0.35993893599485394     
  0.35166098050163674     
  0.35041980059098610     
  0.33462261394568565     
  0.33275531258890056     
  0.31192634182116463     
  0.30897988297736489     
  0.28005741832152431     
  0.27556233237136274     
  0.23767319897830125     
  0.23019487893841445     
  0.17579272087318537     
  0.16148575318693315     
  0.11703089519181176     
  0.11376898238661892     
  3.31400544632551169E-002
  3.21074381830039196E-002
 -0.26774106470362752     
 -5.37680164636781949E-002
  -1.4429906571065803     
 -0.43156250689936193     
  -2.4322983788515495     
 -0.99020275642309996     
  -2.2881079940785769     
  -1.3760407507872172     
  -3.0508679010409749     
  -1.8830086759024807     
  -3.3387742870201720     
  -2.3257733124228741     
  -4.0817860959343673     
  -2.9822617302165915     
  -2.6696381557146407     
 -0.77805727519449341     
  -9.2206539230626934     
  0.41992008393781988     
   1.7830640841914760     
 -0.83069882772558690     
  -3.5523562097026762     
   2.2432422796901674     
  0.16082061280411228     
  0.17117873740158474     
 -0.92076751260400669     
   1.3035813699945829     
  -4.2265151913703090     
  0.49519914036065515     
 -0.25896859295037106     
 -0.42702770367005854     
  0.86932883726349897     
   1.0530432412808770     
  0.99978682296884225     
   1.0130092138126821     
   1.0168869544311874     
   1.0225663511359306     
   1.0212768539343859     
   1.0260486162888196     
   1.0217354796939477     
   1.0329820115552943     
   1.0285705466693642     
   1.0411396727673792     
   1.0347706643264505     
   1.0518943605463140     
   1.0454682097315189     
   1.0645305265459974     
   1.0551246310631643     
   1.0845309864744717     
   1.0677099265320962     
   1.1115197691930070     
   1.0944687585579609     
   1.1365321861269768     
   1.1160901271403330     
   1.1466602152187133     
   1.0895609525486107     
   1.1469178288537518     
   1.0672244747578825     
   1.1573011427625004     
   1.0790535068465053     
   1.1440640178960086     
   1.0745083139158285     
   1.1556084114190084     
   1.0826235891628788     
   1.1435436851894716     
   1.1212889254940239     
   1.0540421219994622     
   1.2902713152920322     
  0.89124974423059422     
   1.4983553573967188     
  0.19355648083124410     
   1.5311118127653014     
  0.15609806890725786     
   2.0392639381212678     
   1.1539859854771668     
   1.0442943866054304     
   1.1602375819285355     
  0.90180561949988114     
   2.1770730862117755     
  0.82018404775281550     
 -0.81415920208623349     
   5.3541965505956277     
  0.99572407472679814     
  0.90477243454895118     
  0.90995683055159637     
  0.90717980349236960     
  0.90200321225332480     
  0.89921568320646039     
  0.89865402899828073     
  0.89600859551866463     
  0.89557734248690923     
  0.88898960037035468     
  0.88829353347187301     
  0.88103169072704046     
  0.88006181282421581     
  0.87043990143842342     
  0.86885700289977574     
  0.85861120369037625     
  0.85633242747409788     
  0.84049920510126275     
  0.83665548984140192     
  0.81943775255029927     
  0.81285650699190704     
  0.79476847160020869     
  0.78735247665561925     
  0.77930753258515750     
  0.76705274488897912     
  0.76869402154540889     
  0.73505336081697403     
  0.74556701708560269     
  0.70060093170033222     
  0.70416324147394938     
  0.67860442397239740     
  0.68576480800580430     
  0.65531996567998985     
  0.66081151867366628     
  0.63297996489257047     
  0.64939679305784548     
  0.59879964558979659     
  0.65526655319925209     
  0.53610613034504495     
  0.85465883720610658     
  0.90347938653519910     
  0.64930048392205930     
  0.79547134274866027     
  0.66077633445241046     
   1.1141098956344515     
  0.14692085227811275     
   1.4558005781821914     
 -0.69064285081315568     
   1.9928193203126798     
 -0.29956065396130033     
   1.4918140413443570     
  0.99602681467295273     
  0.99485676584759264     
  0.99634870023450151     
  0.99559252883753269     
  0.99496349183896637     
  0.99688373793174234     
  0.99674496857988215     
  0.99725442329487979     
  0.99701027101884843     
  0.99753283020169858     
  0.99707799481826609     
  0.99819921729747219     
  0.99794353523920065     
  0.99914674597856712     
  0.99878356774842669     
   1.0006676588130627     
   1.0004767083835879     
   1.0027138284089574     
   1.0025935137046624     
   1.0061428089117670     
   1.0066774942389023     
   1.0118340798394045     
   1.0126780179399277     
   1.0181087106218061     
   1.0200497711962033     
   1.0279805436859684     
   1.0328968527247615     
   1.0555918660754009     
   1.0540996409775789     
   1.0998499572051792     
   1.0965643071319562     
   1.1257180324387734     
   1.1186222405037909     
   1.1586296514369094     
   1.1516735694168183     
   1.1867307310737925     
   1.1778332788287980     
   1.2158656125294447     
   1.2267135214512999     
   1.0638302416973997     
   1.2050392702320143     
   1.3391042945333700     
   1.1339323445304692     
   1.0395194335347955     
   1.2495172588660632     
  0.57565319194416076     
   1.8027740686418978     
  0.51119752129754259     
   1.2062613939865376     
  5.45303813338515325E-002
   1.9636356872977341     
  0.99989431433673659     
  0.99771988154212621     
  0.99787317834401157     
  0.99750477557022432     
  0.99739186997448614     
  0.99620125166706575     
  0.99624559606082219     
  0.99591506175474609     
  0.99597166856969810     
  0.99564707563917942     
  0.99568799595961066     
  0.99497934216995942     
  0.99497992474353125     
  0.99416976543358515     
  0.99420031188447067     
  0.99301152825246120     
  0.99301863675100499     
  0.99160990066433552     
  0.99157003065822735     
  0.98931538536071317     
  0.98925199487876858     
  0.98618496313451043     
  0.98587167225641892     
  0.98261771676895637     
  0.98235051247693672     
  0.97777390813687648     
  0.97716704443186420     
  0.96429860126564559     
  0.96246688970259275     
  0.93866804709259322     
  0.93260032314223018     
  0.91873187963329628     
  0.91272315115113456     
  0.89561742248295151     
  0.88536076226076854     
  0.87005387661474520     
  0.86074360355725077     
  0.84326294788791412     
  0.82852244297448874     
  0.81618592522645772     
  0.80184873807956181     
  0.64432037576747236     
   1.0318196546048433     
  0.66460090898104862     
   1.4704449448409918     
  0.25496498176268950     
   1.7424595845953634     
  0.24685406268817806     
  0.98653038973404517     
  8.14492315422607471E-003
   2.3765351219338973     
   1.0000691369563510     
  0.99995936526831652     
   1.0000123954859188     
  0.99996721083843254     
  0.99996360825282027     
  0.99995558944742347     
  0.99991066993180644     
  0.99992074191096258     
  0.99989333433248417     
  0.99991058709637082     
  0.99988792630506740     
  0.99988978038679810     
  0.99986726004455695     
  0.99987063461964332     
  0.99983982456620502     
  0.99986215573466097     
  0.99980893292334905     
  0.99983429929455525     
  0.99977996924814916     
  0.99982243410656046     
  0.99977373224972432     
  0.99981643145822352     
  0.99985311438269631     
  0.99996853221929971     
  0.99996852168003536     
   1.0001552486537779     
   1.0002624936080260     
   1.0005717409108461     
   1.0009127825473745     
   1.0020544594339178     
   1.0036881596017864     
   1.0068818168909899     
   1.0087081556580224     
   1.0112491970567230     
   1.0143083745635557     
   1.0195221619655352     
   1.0221895140943236     
   1.0268669197100357     
   1.0324332818508741     
   1.0300404905437175     
   1.0700132436249910     
  0.89857424980131373     
   1.3319646388623947     
  0.79472228429292902     
   1.4621530556600850     
  6.61388614698112526E-002
   1.7364278496267780     
  0.28097780674916828     
   1.0896991272515815     
 -0.13527618587329990     
   2.5122167618496114     
   1.0000438386285702     
   1.0000260657318520     
   1.0000187788306780     
   1.0000449265629532     
   1.0000382412973541     
   1.0000426718349382     
   1.0000482894673990     
   1.0000324523423367     
   1.0000516026028721     
   1.0000335037097945     
   1.0000450092426909     
   1.0000503899968807     
   1.0000402420396983     
   1.0000382857842243     
   1.0000447646396147     
   1.0000247073813517     
   1.0000260219745858     
   1.0000176807252781     
   1.0000136061322524     
  0.99998763458496698     
  0.99996945514517410     
  0.99993881626902925     
  0.99987310109521621     
  0.99980512334194260     
  0.99978421948645513     
  0.99965514078825257     
  0.99962446029311192     
  0.99942198043436092     
  0.99937439676831186     
  0.99869527868228181     
  0.99869224307521054     
  0.99681234715424694     
  0.99667866796623994     
  0.99516540062743553     
  0.99516173923944207     
  0.99228961219737621     
  0.99219718226783660     
  0.98914896497193661     
  0.99043605029904636     
  0.97980812912654636     
   1.0103168209798166     
  0.88959545504171578     
   1.1944767181851397     
  0.67720668127708017     
   1.5964180323110155     
 -0.24358659483301548     
   2.4840409984328389     
  0.27812744004567380     
   1.0652184793377901     
 -0.13089907487721253     
   2.7871124148234863     
   1.0000423128529270     
  0.99998649122544425     
   1.0000023409591088     
   1.0000034412060839     
   1.0000084291667266     
   1.0000086122801211     
   1.0000022668115258     
   1.0000184470025122     
   1.0000074791240117     
   1.0000202149865420     
   1.0000110103708291     
   1.0000115520915371     
   1.0000161102217717     
   1.0000129337503005     
   1.0000072547216603     
   1.0000195952752624     
   1.0000191939674461     
   1.0000134499980342     
   1.0000223606677796     
   1.0000124284042959     
   1.0000274772717368     
   1.0000089644321233     
   1.0000401552214573     
   1.0000180906126759     
   1.0000282481660110     
   1.0000279315028140     
   1.0000442847975539     
   1.0000282580146829     
   1.0000452321106528     
   1.0000388765980683     
   1.0000377875110504     
   1.0000621653099864     
   1.0000836857182842     
   1.0001973951185643     
   1.0001585477624877     
   1.0003801336024578     
   1.0004199612926250     
   1.0006170094831344     
   1.0013955320876686     
  0.99732212655067221     
   1.0202938155870875     
  0.91928409092756602     
   1.3208078730338459     
  0.42847526457129886     
   2.0947299271762385     
 -0.48933516812648847     
   2.0738992339998505     
  0.13600515916089115     
   1.1406752202167847     
 -0.21381994688605399     
   2.7909725011468702     
   1.0000595390715663     
  0.99996176058646935     
  0.99999584922241502     
  0.99999807388355455     
  0.99999824984864261     
  0.99999769567195718     
  0.99999975390298057     
  0.99999748903833829     
  0.99999902224212978     
  0.99999662593307004     
  0.99999853095854829     
  0.99999875034249797     
  0.99999759680192313     
  0.99999793289259631     
   1.0000002920052906     
  0.99999781771630492     
  0.99999718274328642     
  0.99999881381381683     
  0.99999733331114526     
   1.0000010332738900     
  0.99999734435820586     
   1.0000041731245719     
  0.99999544055905076     
  0.99999926514180770     
  0.99999848520862233     
   1.0000043473404356     
  0.99999445616233984     
   1.0000079904518642     
  0.99999596249428646     
  0.99999476940486443     
   1.0000041991046456     
  0.99999039668984124     
  0.99999266146152044     
  0.99993359929788650     
  0.99998111504671416     
  0.99986823602460539     
  0.99994043488019391     
  0.99966225757945915     
   1.0003741994590194     
  0.99649158562781903     
   1.0146684292498565     
  0.93284828673202469     
   1.3188384323426252     
  0.62574292981287361     
   1.4335044842504503     
 -0.20937910216406272     
   2.1174099832242859     
  0.13596054476021566     
  0.99803272696021827     
 -4.14097358903764701E-002
   2.7298863563885987     
   1.0000014024889738     
   1.0000201885440194     
  0.99999845766552953     
  0.99999933878968972     
  0.99999984551065002     
   1.0000000362474768     
  0.99999952831447181     
   1.0000001837588774     
  0.99999960902950635     
   1.0000000580555128     
  0.99999944035637478     
  0.99999943288312754     
  0.99999977435937804     
  0.99999984963167576     
  0.99999908112123481     
  0.99999954586164042     
  0.99999985506209610     
  0.99999947974048342     
  0.99999970736799537     
  0.99999893531612949     
  0.99999949903465124     
  0.99999875172162600     
   1.0000001317477947     
  0.99999973275657117     
  0.99999930085813071     
  0.99999862338358492     
   1.0000008030227816     
  0.99999852767092157     
   1.0000001739796229     
   1.0000009673375625     
  0.99999862940132545     
   1.0000001824970215     
   1.0000005667769156     
   1.0000064395120942     
  0.99999899956369731     
   1.0000142235782965     
   1.0000078568041286     
  0.99998339563109950     
   1.0003620839079614     
  0.99757488772586089     
   1.0122190499491355     
  0.94470665241816065     
   1.1422747410401519     
  0.72697782498704799     
   1.5336974855464607     
 -0.11127110506471287     
   2.1533214264362246     
  7.09150008105909752E-002
   1.1150379470583600     
 -0.21054617154277799     
   2.7234225169262696     
   1.0000830803383947     
  0.99995041724015266     
  0.99999654195438903     
  0.99999951413350019     
  0.99999996053135709     
  0.99999995909637684     
   1.0000000528306079     
  0.99999989939291178     
   1.0000000182614779     
  0.99999987760872855     
   1.0000000096117845     
   1.0000000529600339     
  0.99999994662073455     
  0.99999991743370031     
   1.0000000918600680     
   1.0000000122850408     
  0.99999982476430049     
  0.99999998484909880     
  0.99999986662134277     
   1.0000000752952924     
  0.99999990541239425     
   1.0000001369258811     
  0.99999972790465042     
  0.99999973602763081     
  0.99999981350113087     
   1.0000001146354891     
  0.99999940632712725     
  0.99999996886878206     
  0.99999957111240345     
  0.99999929695673573     
  0.99999987157835180     
  0.99999951535002474     
  0.99999938776602426     
  0.99999819277016488     
   1.0000007344338155     
  0.99999653262084764     
   1.0000037240905999     
  0.99995913604134268     
   1.0002250500176966     
  0.99816359148543288     
   1.0099163434703049     
  0.95401633159825505     
   1.1486939841059942     
  0.83379372283918674     
   1.5335863152699463     
 -3.51107651411193128E-002
   2.0745312663296840     
  6.72749338105448347E-002
   1.0799440729817873     
 -0.12878895408380042     
   2.7247656605868382     
   1.0000145789810597     
  0.99999483042427062     
  0.99999548291676832     
  0.99999989141268286     
  0.99999997614723801     
   1.0000000150213739     
   1.0000000009415801     
   1.0000000174657750     
   1.0000000127425051     
   1.0000000264594868     
   1.0000000194916381     
   1.0000000158693907     
   1.0000000185780102     
   1.0000000358517920     
   1.0000000108852078     
   1.0000000063047829     
   1.0000000384147198     
   1.0000000243839264     
   1.0000000408460621     
   1.0000000134838167     
   1.0000000298001814     
  0.99999999849796228     
   1.0000000309546948     
   1.0000000590136575     
   1.0000000528234565     
  0.99999999095900205     
   1.0000001011881359     
   1.0000000263034416     
   1.0000000286009247     
   1.0000001160153609     
   1.0000000351933804     
   1.0000000393980293     
   1.0000000694421858     
   1.0000001991886933     
  0.99999970320354570     
  0.99999996367356325     
   1.0000024037435302     
  0.99997656746469055     
   1.0001788759953749     
  0.99873764723029790     
   1.0074871346157526     
  0.96050411042027739     
   1.1275299055373602     
  0.79606754617184672     
   1.5075169734315088     
 -3.55271075653616208E-002
   2.0950832838818920     
  6.72710198706528845E-002
   1.1193493394759280     
 -0.21034066820004810     
   2.7244757359523986     
   1.0000147764782570     
  0.99999968396576422     
  0.99999904890121694     
  0.99999967565983083     
  0.99999997692610187     
  0.99999999468192580     
  0.99999999985724020     
  0.99999999723953059     
  0.99999999919339666     
  0.99999999593518651     
  0.99999999769711501     
  0.99999999838040465     
  0.99999999961776975     
  0.99999999564199515     
   1.0000000006106109     
   1.0000000030666678     
  0.99999999191207578     
  0.99999999758919500     
  0.99999999650839122     
   1.0000000011773953     
  0.99999999846111398     
   1.0000000049774158     
  0.99999999244374027     
  0.99999999041159460     
  0.99999999378042603     
   1.0000000116888517     
  0.99999997826912623     
   1.0000000005820753     
  0.99999999245242066     
  0.99999997024367604     
   1.0000000014266162     
   1.0000000077502977     
  0.99999998282511471     
  0.99999994195018760     
   1.0000000402929021     
  0.99999982764834039     
   1.0000011844523384     
  0.99998309876894154     
   1.0001284235014292     
  0.99900530942271581     
   1.0053252736296958     
  0.96983395276674389     
   1.1193715090507186     
  0.79490775142467140     
   1.5142063891193822     
 -6.16338385534257044E-002
   2.0946141409779728     
  6.72722254950634535E-002
   1.1419091414944793     
 -0.21048391703866359     
   2.7245305204025643     
   1.0000635685640322     
  0.99996187884283327     
  0.99999816525517748     
  0.99999959247946524     
  0.99999998188130446     
  0.99999999888328817     
  0.99999999979572662     
   1.0000000006213863     
   1.0000000005571643     
   1.0000000009098740     
   1.0000000005653644     
   1.0000000000012323     
   1.0000000003795813     
   1.0000000011813261     
  0.99999999987289578     
  0.99999999951501850     
   1.0000000023917002     
   1.0000000011920402     
   1.0000000013477692     
  0.99999999981123067     
   1.0000000000790661     
  0.99999999949553819     
   1.0000000023316360     
   1.0000000029529834     