# vtk DataFile Version 4.2
Incompressible Euler
ASCII
 
DATASET UNSTRUCTURED_GRID
POINTS     9 DOUBLE
   0.0000000000000000        0.0000000000000000        0.0000000000000000     
  0.50000000000000000        0.0000000000000000        0.0000000000000000     
   1.0000000000000000        0.0000000000000000        0.0000000000000000     
   0.0000000000000000       0.50000000000000000        0.0000000000000000     
  0.50000000000000000       0.50000000000000000        0.0000000000000000     
   1.0000000000000000       0.50000000000000000        0.0000000000000000     
   0.0000000000000000        1.0000000000000000        0.0000000000000000     
  0.50000000000000000        1.0000000000000000        0.0000000000000000     
   1.0000000000000000        1.0000000000000000        0.0000000000000000     
 
CELLS     8    32
           3           0           1           4
           3           0           4           3
           3           1           2           5
           3           1           5           4
           3           3           4           7
           3           3           7           6
           3           4           5           8
           3           4           8           7
 
CELL_TYPES     8
5
5
5
5
5
5
5
5
 
POINT_DATA     9
SCALARS pressure DOUBLE
LOOKUP_TABLE default
   1.4930257286216679     
   1.6784636816586844     
   1.9860514572433381     
   1.6986765562690374     
   1.6470879714955833     
   1.6986765562690374     
   1.9860514572433381     
   1.6784636816586844     
   1.4930257286216679     
VECTORS velocity DOUBLE
 -0.34522735076287842      -2.64174224135908318E-018   0.0000000000000000     
 -0.60446042354107921      -6.42229377510044589E-017   0.0000000000000000     
  -1.0225649624630644      -2.73864237068981937E-018   0.0000000000000000     
 -0.63046008966874201      -5.76934504851026938E-017   0.0000000000000000     
 -0.57805002316656640      -2.45412144762769649E-017   0.0000000000000000     
 -0.63046008966874201      -5.48096836028725218E-017   0.0000000000000000     
  -1.0225649624630644      -3.97189017469906059E-018   0.0000000000000000     
 -0.60446042354107921      -6.42229377510044589E-017   0.0000000000000000     
 -0.34522735076287842      -1.00125236141854075E-018   0.0000000000000000     
 
