# vtk DataFile Version 4.2
Incompressible Euler
ASCII
 
DATASET UNSTRUCTURED_GRID
POINTS   483 DOUBLE
   1.0000000000000000       -0.0000000000000000        0.0000000000000000     
   10.000000000000000       0.50000000000000000        0.0000000000000000     
  0.99219199999999996      -1.74799999999999999E-003   0.0000000000000000     
  0.98181700000000005      -3.66700000000000012E-003   0.0000000000000000     
  0.96762700000000001      -5.72600000000000019E-003   0.0000000000000000     
  0.94850400000000001      -8.28100000000000017E-003   0.0000000000000000     
  0.92316399999999998      -1.15449999999999997E-002   0.0000000000000000     
  0.89053000000000004      -1.56400000000000011E-002   0.0000000000000000     
  0.85442600000000002      -2.00059999999999995E-002   0.0000000000000000     
  0.77493000000000001      -2.89650000000000012E-002   0.0000000000000000     
  0.69534399999999996      -3.70909999999999990E-002   0.0000000000000000     
  0.61567200000000000      -4.43259999999999973E-002   0.0000000000000000     
  0.53591400000000000      -5.05379999999999996E-002   0.0000000000000000     
  0.45606799999999997      -5.54909999999999987E-002   0.0000000000000000     
  0.37965199999999999      -5.87229999999999974E-002   0.0000000000000000     
  0.30929400000000001      -5.99970000000000017E-002   0.0000000000000000     
  0.24455700000000000      -5.92659999999999992E-002   0.0000000000000000     
  0.18559700000000001      -5.64640000000000003E-002   0.0000000000000000     
  0.13198799999999999      -5.14389999999999986E-002   0.0000000000000000     
  8.26380000000000031E-002 -4.36150000000000010E-002   0.0000000000000000     
  4.32099999999999984E-002 -3.33830000000000029E-002   0.0000000000000000     
  2.33779999999999995E-002 -2.53570000000000011E-002   0.0000000000000000     
  1.08109999999999994E-002 -1.76800000000000013E-002   0.0000000000000000     
  3.36700000000000020E-003 -1.00789999999999994E-002   0.0000000000000000     
  6.20000000000000000E-004 -4.38999999999999981E-003   0.0000000000000000     
  9.99999999999999955E-007 -1.78999999999999987E-004   0.0000000000000000     
  4.78999999999999988E-004  3.85900000000000002E-003   0.0000000000000000     
  2.77399999999999999E-003  9.16999999999999933E-003   0.0000000000000000     
  8.35999999999999938E-003  1.56409999999999987E-002   0.0000000000000000     
  1.82739999999999986E-002  2.26309999999999983E-002   0.0000000000000000     
  3.41300000000000006E-002  3.00909999999999997E-002   0.0000000000000000     
  6.16389999999999993E-002  3.88039999999999982E-002   0.0000000000000000     
  0.10430300000000001       4.75389999999999979E-002   0.0000000000000000     
  0.15150400000000000       5.36029999999999979E-002   0.0000000000000000     
  0.20271200000000000       5.75289999999999968E-002   0.0000000000000000     
  0.25801099999999999       5.95969999999999972E-002   0.0000000000000000     
  0.31823600000000002       5.99430000000000032E-002   0.0000000000000000     
  0.38368000000000002       5.85970000000000033E-002   0.0000000000000000     
  0.45430900000000002       5.55840000000000015E-002   0.0000000000000000     
  0.53051099999999995       5.09160000000000029E-002   0.0000000000000000     
  0.61027399999999998       4.47810000000000014E-002   0.0000000000000000     
  0.68995200000000001       3.76099999999999976E-002   0.0000000000000000     
  0.76954400000000001       2.95419999999999988E-002   0.0000000000000000     
  0.84904700000000000       2.06399999999999986E-002   0.0000000000000000     
  0.88876200000000005       1.58580000000000006E-002   0.0000000000000000     
  0.92477500000000001       1.13399999999999994E-002   0.0000000000000000     
  0.95053699999999997       8.01499999999999956E-003   0.0000000000000000     
  0.96709999999999996       5.79800000000000020E-003   0.0000000000000000     
  0.97813600000000001       4.23999999999999985E-003   0.0000000000000000     
  0.98911700000000002       2.37499999999999994E-003   0.0000000000000000     
  0.99456699999999998       1.23299999999999994E-003   0.0000000000000000     
   9.1785829999999997        4.1014510000000000        0.0000000000000000     
   6.8124750000000001        7.3134829999999997        0.0000000000000000     
   3.7326160000000002        9.2577999999999996        0.0000000000000000     
 -0.10552499999999999        9.9993560000000006        0.0000000000000000     
  -3.7555760000000000        9.2517800000000001        0.0000000000000000     
  -7.0510900000000003        7.0888190000000000        0.0000000000000000     
  -9.0921830000000003        4.1381740000000002        0.0000000000000000     
  -9.9949290000000008       0.31531700000000001        0.0000000000000000     
  -9.3953959999999999       -3.3868420000000001        0.0000000000000000     
  -7.3642139999999996       -6.7621739999999999        0.0000000000000000     
  -4.4487800000000002       -8.9421260000000000        0.0000000000000000     
 -0.66707899999999998       -9.9755459999999996        0.0000000000000000     
   3.1073930000000001       -9.5050650000000001        0.0000000000000000     
   6.5399440000000002       -7.5718129999999997        0.0000000000000000     
   8.4518360000000001       -5.2549409999999996        0.0000000000000000     
   9.6164819999999995       -2.4616940000000000        0.0000000000000000     
 -2.63400000000000006E-003 -2.32700000000000008E-003   0.0000000000000000     
 -3.68000000000000011E-003  2.12200000000000019E-003   0.0000000000000000     
 -3.22500000000000000E-003  8.38200000000000056E-003   0.0000000000000000     
 -7.18500000000000041E-003 -2.13299999999999991E-003   0.0000000000000000     
 -2.81000000000000000E-003 -7.11000000000000000E-003   0.0000000000000000     
 -9.36999999999999986E-003  5.02200000000000042E-003   0.0000000000000000     
 -9.36700000000000033E-003 -9.26899999999999946E-003   0.0000000000000000     
 -4.62000000000000008E-004  1.60360000000000016E-002   0.0000000000000000     
  0.99817299999999998       9.27599999999999952E-003   0.0000000000000000     
 -8.98999999999999973E-003  1.39190000000000008E-002   0.0000000000000000     
 -1.49409999999999994E-002 -1.43599999999999999E-003   0.0000000000000000     
 -1.43699999999999991E-003 -1.45530000000000000E-002   0.0000000000000000     
   1.0107290000000000       4.43399999999999957E-003   0.0000000000000000     
 -1.79470000000000011E-002  8.96100000000000022E-003   0.0000000000000000     
   1.0107500000000000      -9.03900000000000016E-003   0.0000000000000000     
 -1.91230000000000011E-002 -1.11900000000000003E-002   0.0000000000000000     
  0.99874900000000000      -1.18840000000000005E-002   0.0000000000000000     
 -1.02240000000000004E-002 -1.94350000000000009E-002   0.0000000000000000     
 -6.04800000000000042E-003  2.30369999999999985E-002   0.0000000000000000     
  0.98595800000000000       1.45660000000000008E-002   0.0000000000000000     
  4.36999999999999975E-003  2.58000000000000000E-002   0.0000000000000000     
  0.98880299999999999      -1.26169999999999997E-002   0.0000000000000000     
 -2.61949999999999995E-002 -4.62999999999999978E-004   0.0000000000000000     
   1.0095510000000001       1.66950000000000015E-002   0.0000000000000000     
 -1.67819999999999983E-002  2.16070000000000012E-002   0.0000000000000000     
 -6.60000000000000051E-005 -2.38200000000000009E-002   0.0000000000000000     
   1.0221570000000000      -3.31299999999999997E-003   0.0000000000000000     
   1.0074030000000000      -2.30349999999999999E-002   0.0000000000000000     
  8.96600000000000001E-003 -3.39430000000000009E-002   0.0000000000000000     
 -2.26170000000000017E-002 -2.44879999999999994E-002   0.0000000000000000     
  0.97427799999999998       1.57039999999999992E-002   0.0000000000000000     
  0.99751900000000004       2.55219999999999995E-002   0.0000000000000000     
 -3.11199999999999984E-002  1.44270000000000006E-002   0.0000000000000000     
   1.0241240000000000       1.19609999999999994E-002   0.0000000000000000     
  0.99318499999999998      -2.64439999999999988E-002   0.0000000000000000     
  0.97785599999999995      -2.03340000000000014E-002   0.0000000000000000     
 -3.06619999999999983E-002 -1.25470000000000009E-002   0.0000000000000000     
   1.0255860000000001      -2.24299999999999986E-002   0.0000000000000000     
 -8.03199999999999921E-003 -3.34889999999999979E-002   0.0000000000000000     
 -8.39900000000000022E-003  3.72909999999999978E-002   0.0000000000000000     
  1.44200000000000005E-002  3.96499999999999977E-002   0.0000000000000000     
   1.0175749999999999       3.19559999999999983E-002   0.0000000000000000     
  0.96159099999999997       2.36549999999999989E-002   0.0000000000000000     
  0.97859799999999997       3.05419999999999997E-002   0.0000000000000000     
   1.0399210000000001      -3.26200000000000014E-003   0.0000000000000000     
 -4.27849999999999966E-002 -1.82500000000000002E-003   0.0000000000000000     
 -2.81350000000000003E-002  3.10509999999999987E-002   0.0000000000000000     
   1.0085050000000000      -4.77479999999999988E-002   0.0000000000000000     
  0.95798499999999998      -2.94409999999999984E-002   0.0000000000000000     
  0.97719599999999995      -4.56879999999999994E-002   0.0000000000000000     
  2.67839999999999988E-002 -4.91790000000000005E-002   0.0000000000000000     
 -4.18380000000000002E-002 -2.54169999999999986E-002   0.0000000000000000     
 -2.47519999999999997E-002 -4.53100000000000031E-002   0.0000000000000000     
  1.43300000000000003E-003 -5.40030000000000024E-002   0.0000000000000000     
  0.99552600000000002       5.04010000000000014E-002   0.0000000000000000     
  0.94221900000000003       2.83109999999999994E-002   0.0000000000000000     
   1.0453880000000000       2.39329999999999994E-002   0.0000000000000000     
   1.0510170000000001      -2.69630000000000009E-002   0.0000000000000000     
[...]
POINT_DATA   483
SCALARS pressure DOUBLE
LOOKUP_TABLE default
   1.4552983700446058     
   1.3987962739334423     
   1.4077220338974543     
   1.4168494665696520     
   1.4140465673293909     
   1.4115964377697381     
   1.4096885791400480     
   1.4055014065993827     
   1.4029583497697049     
   1.3983320925740874     
   1.3942931370814213     
   1.3913469792033182     
   1.3884399096402431     
   1.3861875263000507     
   1.3837330570270601     
   1.3840026635153093     
   1.3848363696306250     
   1.3912042339786905     
   1.3967760945605738     
   1.4191866823445758     
   1.4424136160759684     
   1.4589147719048989     
   1.4838868977635278     
   1.4811507039451979     
   1.4336888599680366     
   1.4019919242769783     
   1.3726786818277164     
   1.3056216825412468     
   1.2471200552057098     
   1.2381197623403257     
   1.2417197580991692     
   1.2404690096274740     
   1.2575882877259386     
   1.2737449571185193     
   1.2877317912288149     
   1.2997566217015579     
   1.3117193649463572     
   1.3224828772190491     
   1.3331530249147139     
   1.3428158723030355     
   1.3513511766253727     
   1.3597957473427242     
   1.3673443848708455     
   1.3755959632442039     
   1.3783254135804570     
   1.3826240667358614     
   1.3848571337380915     
   1.3865461219150899     
   1.3864262085664079     
   1.3932212528180126     
   1.3728425074632993     
   1.3984726326012682     
   1.3981698527967628     
   1.3968459702005140     
   1.3973202731280212     
   1.3978741439956037     
   1.3989680885513112     
   1.3996645271173909     
   1.4002277556473974     
   1.4006414317089475     
   1.4012828890760105     
   1.4021268524833601     
   1.4031173577652991     
   1.4037965344948400     
   1.4024078373737814     
   1.4021496241887010     
   1.4004792580878207     
   1.4674077697870094     
   1.4305869176226347     
   1.4041797847113986     
   1.4622933187579392     
   1.4949183294668258     
   1.4431612324252874     
   1.4920165621777006     
   1.3566270593000314     
   1.3887874750167037     
   1.4079711168856617     
   1.4662491353778100     
   1.4924965359315552     
   1.4220193588469983     
   1.4452308857669598     
   1.4507441593721560     
   1.4800826060819576     
   1.4342845211802870     
   1.4931997435440139     
   1.3709820424595101     
   1.3910233893221149     
   1.3366737087100244     
   1.4165539234040363     
   1.4613230920523765     
   1.3965338370048879     
   1.4164928888213137     
   1.5080348730125441     
   1.4273295478585379     
   1.4295623452268180     
   1.4895583290551357     
   1.4802508922253768     
   1.3887639090476667     
   1.3943278579760396     
   1.4363779397403917     
   1.4132015269528237     
   1.4243997135818447     
   1.4194051542088237     
   1.4702956656887864     
   1.4236673622013805     
   1.4901856017128960     
   1.3749746362844857     
   1.3066151364737693     
   1.3953105918460167     
   1.3877345299268347     
   1.3903196750235303     
   1.4164605612931034     
   1.4569709265643938     
   1.4124064219546051     
   1.4220987020297022     
   1.4154240392632780     
   1.4152857756868455     
   1.4627023267148320     
   1.4604283462992009     
   1.4693513543055698     
   1.4785644059117007     
   1.3945926629726368     
   1.3856007407846931     
   1.4068292391486128     
   1.4166570336294033     
   1.4102536430631227     
   1.4158409401228322     
   1.4194195075740905     
   1.3466236413005526     
   1.3871672273760081     
   1.3889569490226648     
   1.2991002468782302     
   1.4074520160393040     
   1.3839053632583522     
   1.4119884643074692     
   1.4390723711244136     
   1.4155037687049186     
   1.4403217691842476     
   1.3966467061610273     
   1.3802813591548417     
   1.4095978729364240     
   1.4147598115544631     
   1.4502049901492127     
   1.4609856624860942     
   1.4041399487236363     
   1.4190202289642897     
   1.4561788062713767     
   1.4127923429979263     
   1.3979162754766805     
   1.2976566495626354     
   1.4131183082407117     
   1.4146463661891062     
   1.2985761665005608     
   1.3925540993286207     
   1.3288524728973437     
   1.4004445885175227     
   1.3676845547252083     
   1.4025369572507207     
   1.3056500559258086     
   1.3963951807786297     
   1.3121716482923009     
   1.4308689359820812     
   1.4081961635228939     
   1.3945438026638313     
   1.3859904666329295     
   1.4442547767575733     
   1.3222165529311345     
   1.4279650558110437     
   1.4357433216777136     
   1.3257065443824854     
   1.3829536527706829     
   1.4102736387326147     
   1.3930156228699304     
   1.3310211458206169     
   1.3395616285261471     
   1.3216284228653452     
   1.3937225446233723     
   1.3463525000383449     
   1.4130370065925295     
   1.4135241708389445     
   1.3569912366528816     
   1.4046730282358275     
   1.3223083043015242     
   1.4038795877203396     
   1.4003131432072569     
   1.3972680313972896     
   1.3544591050163315     
   1.3621856748638299     
   1.3698370443057239     
   1.3776483839662861     
   1.3953589742247223     
   1.3961469918715781     
   1.4104979823860002     
   1.4000397314324642     
   1.4071697275456712     
   1.3288456386264877     
   1.4017166987390108     
   1.4019024051739222     
   1.4105477277326341     
   1.3367570788243972     
   1.3991273128708444     
   1.4093163952079493     
   1.3511478033346007     
   1.3551030642739748     
   1.3456503179951809     
   1.4299247737232159     
   1.4021191935955339     
   1.4006044892026694     
   1.3979217597931366     
   1.3771617456210610     
   1.4041380881911532     
   1.4252958609813704     
   1.3637647522378247     
   1.3708568715186749     
   1.3994076286189523     
   1.4221334027434838     
   1.3851286875769244     
   1.4075596924559013     
   1.3917859670187369     
   1.3910857860893076     
   1.3720844013612234     
   1.4180640460567402     
   1.3454437726713986     
   1.4017641317124263     
   1.4195268327186608     
   1.3974727306881338     
   1.4091920916719036     
   1.4093621171694377     
   1.4016456726083331     
   1.4112037210459480     
   1.4119587393681581     
   1.3600019485545844     
   1.4025853062804665     
   1.3469815974542190     
   1.3956229379479790     
   1.4080106175032865     
   1.4037543400747023     
   1.3991685389151884     
   1.4050687591954276     
   1.4023451093872292     
   1.4069683832703848     
   1.3785553354010354     
   1.3721706978756369     
   1.3555492995195813     
   1.4165064400442477     
   1.4178032013498996     
   1.4067213141349229     
   1.3836372451586287     
   1.3878007831012897     
   1.3945893384071768     
   1.4116813853940235     
   1.3673547687914147     
   1.4009428330846903     
   1.4081472154833545     
   1.3979638234172498     
   1.4023068362949338     
   1.4145797862286462     
   1.4079831238677780     
   1.3972523947679849     
   1.3915155777500752     
   1.4051526567680532     
   1.3668465704323562     
   1.4057737212250740     
   1.3705665298639091     
   1.4161948404892559     
   1.4049622204959595     
   1.4058720498517783     
   1.4060529251006832     
   1.4109467508192706     
   1.3929264343556416     
   1.3643423356656577     
   1.3973667667743928     
   1.3799103806486095     
   1.4110712626626809     
   1.4049293281333208     
   1.3985549252545593     
   1.3970849088829045     
   1.3830514198847186     
   1.4064626655881096     
   1.4088780827047773     
   1.4065938387697312     
   1.4017168225456567     
   1.3762043540159423     
   1.4125574853095666     
   1.4061253691746094     
   1.4110815411313944     
   1.4112999039767715     
   1.4070060536911237     
   1.4005492053021462     
   1.3870131329905422     
   1.3977032154453561     
   1.3945717150661576     
   1.4089419374263181     
   1.3737102148635663     
   1.3956456783782358     
   1.4053704444999175     
   1.3783270575352005     
   1.4045837281806282     
   1.3874238591861272     
   1.4070838215352071     
   1.4061057831653736     
   1.3980058194565539     
   1.3837007073664620     
   1.3911100976693929     
   1.3981008879679562     
   1.3983432258339590     
   1.4084571642092794     
   1.4047878402249541     
   1.3818188079343610     
   1.4071021053133490     
   1.4060516527263356     
   1.4017553856082361     
   1.4091459370143227     
   1.4083380732011730     
   1.4026411783147918     
   1.4057124976017379     
   1.3982791448906700     
   1.3808339119978346     
   1.3926598927801883     
   1.4037822635656632     
   1.3967282801949366     
   1.3975682901483801     
   1.4052084978974237     
   1.3958483731604430     
   1.4039879225800409     
   1.3880861967604918     
   1.4062229220991969     
   1.3871835923257385     
   1.3990741100274007     
   1.3969881181867294     
   1.4056703290098493     
   1.4014939493275433     
   1.3988322120026468     
   1.4067811202626244     
   1.3868900344268977     
   1.4042520659120312     
   1.3957875773973956     
   1.4064025565073175     
   1.4048966595927841     
   1.4074827470156988     
   1.4023194747954970     
   1.3930338355816334     
   1.4054138578438444     
   1.4028000798925935     
   1.4039360215711356     
   1.3960879602077032     
   1.4054359035428241     
   1.4034199735910782     
   1.3929856683765924     
   1.3913949987944292     
   1.3981049578535549     
   1.3908130723407275     
   1.3999649805143826     
   1.3990159586953523     
   1.3983541146344829     
   1.4046497108020441     
   1.4056536086191389     
   1.4013637965720622     
   1.3980975294919420     
   1.4038922290253311     
   1.3910607658855700     
   1.3962817360252062     
   1.4044685122974896     
   1.4022920350559831     
   1.3942916134951946     
   1.4019583828003936     
   1.4029313318427805     
   1.4030156503771685     
   1.3945555866408312     
   1.4051943844544614     
   1.3966918911234101     
   1.4046763125399198     
   1.4002176742184591     
   1.3990284827235242     
   1.3935677652221299     
   1.3977279643760192     
   1.4041893846971474     
   1.3982487420600311     
   1.3992072241164775     
   1.4035552847821955     
   1.3999988235252774     
   1.4010976177154397     
   1.4042240110329329     
   1.4035697833601859     
   1.3968545951537437     
   1.3982119369607759     
   1.3944973738058453     
   1.4018559351770752     
   1.3954430174353745     
   1.4019349660074523     
   1.4038917011914547     
   1.3995121915055417     
   1.4023503159413822     
   1.3985180921271472     
   1.4003785906623620     
   1.3955192879922507     
   1.3972365357879133     
   1.3957248687216910     
   1.3985853196102351     
   1.4026824437353498     
   1.3990658763958086     
   1.4033391031674096     
   1.4031517731394265     
   1.4027025593819218     
   1.4009820019592250     
   1.4035536272608418     
   1.3982050549622755     
   1.4007632421936480     
   1.3963750410125333     
   1.4014226654325350     
   1.4016489857285948     
   1.3981644661539836     
   1.3972348857269115     
   1.3967586537544368     
   1.3998983895180941     
   1.3991960927954041     
   1.4030425245245393     
   1.4018473563401506     
   1.3969404232352094     
   1.4003593925289894     
   1.4025819804670110     
   1.4021158112981995     
   1.3978165907850653     
   1.3991790113714915     
   1.3988883500205720     
   1.3992341064273057     
   1.4027658496350319     
   1.4008738156349878     
   1.4024664115309198     
   1.3981675093679775     
   1.4020685220011682     
   1.3974679951036566     
   1.3989849148436637     
   1.3973932742690589     
   1.4009859497860171     
   1.4011639354078933     
   1.4017244283579364     
   1.4000194069221115     
   1.3983917973479925     
   1.3973863448620947     
   1.4026432792913512     
   1.4021938026437988     
   1.4014235095121907     
   1.3973159092166332     
   1.3996464568681686     
   1.4004276209446740     
   1.3989435400051329     
   1.3988224759598811     
   1.3978332227369805     
   1.4022174873725106     
   1.3999339728833970     
   1.3990161846115046     
   1.3981403504990908     
   1.4006315684915382     
   1.3977523447856273     
   1.4028019818549022     
   1.4019128710743707     
   1.4010574509816702     
   1.4009955284251172     
   1.3994223222326729     
   1.4000514999211453     
   1.4012262559692159     
   1.3987583410322770     
   1.3986145647779711     
   1.4013744761025069     
   1.3993296381731470     
   1.3983464887095802     
   1.4011432458552124     
   1.4002205158747074     
   1.3990133633183099     
   1.4015024471769189     
   1.3994104380469266     
   1.3992153667166836     
   1.3986332621038102     
   1.3990115601187707     
   1.4005275002474986     
   1.4000061094733049     
   1.3993531261481735     
   1.4007837331143396     
   1.3997964383229802     
   1.4010896748434976     
   1.4012343241747334     
   1.4007204007809511     
VECTORS velocity DOUBLE
  0.32770478482077348      -7.43714337721352592E-002   0.0000000000000000     
  0.39857126390005032       2.69737596941662452E-002   0.0000000000000000     
  0.30593642280633182       6.16987770131887728E-002   0.0000000000000000     
  0.33477628011676386       5.42129062611229548E-002   0.0000000000000000     
  0.34703087034016217       4.80653329255696024E-002   0.0000000000000000     
  0.35635329132768268       4.66369746134041446E-002   0.0000000000000000     
  0.36409414438623000       4.62167317855983403E-002   0.0000000000000000     
  0.37158498438129273       4.57386096896931840E-002   0.0000000000000000     
  0.37719003679806246       4.34780038091191340E-002   0.0000000000000000     
  0.38660855074314282       4.15207697253400440E-002   0.0000000000000000     
  0.39408699313335926       3.80110908181788554E-002   0.0000000000000000     
  0.40031187592369577       3.37639954559741315E-002   0.0000000000000000     
  0.40521748575646743       2.83467408615758615E-002   0.0000000000000000     
  0.40907194606133279       2.14271792151131818E-002   0.0000000000000000     
  0.41188466956913800       1.26449665545568541E-002   0.0000000000000000     
  0.41223399497411323       1.65693074703683672E-003   0.0000000000000000     
  0.40812616015446107      -1.16567881502843591E-002   0.0000000000000000     
  0.39870144455318468      -2.77219856844937336E-002   0.0000000000000000     
  0.37573929156055835      -4.68912300747055116E-002   0.0000000000000000     
  0.34002401671614113      -6.91553498144431150E-002   0.0000000000000000     
  0.28071302664802872      -8.64876550884191575E-002   0.0000000000000000     
  0.20782105977567161      -0.10072576627850788        0.0000000000000000     
  0.10164044561613096      -7.76004561552777750E-002   0.0000000000000000     
  3.65310974698529510E-003 -4.76399063266299671E-003   0.0000000000000000     
 -3.52133323290112626E-002  0.10356862449708781        0.0000000000000000     
 -3.87747614832504185E-003  0.22684610459211479        0.0000000000000000     
  9.34238870939994859E-002  0.31497292478968592        0.0000000000000000     
  0.24389776291849169       0.36462421554443419        0.0000000000000000     
  0.36848852121357134       0.32001445058424816        0.0000000000000000     
  0.45820821262665734       0.25693087591987457        0.0000000000000000     
  0.51548394111822970       0.19225001221503860        0.0000000000000000     
  0.52162397209835254       0.12969796168287021        0.0000000000000000     
  0.51344381869629840       8.45541097522568286E-002   0.0000000000000000     
  0.50317296720557503       5.10796567629350426E-002   0.0000000000000000     
  0.49534488657454784       2.78770151269667164E-002   0.0000000000000000     
  0.48318211971390518       1.00966174733333781E-002   0.0000000000000000     
  0.47066741882340585      -3.74529453423998139E-003   0.0000000000000000     
  0.45675740801518716      -1.46318927453512933E-002   0.0000000000000000     
  0.44261407363326843      -2.31539572677237418E-002   0.0000000000000000     
  0.42835242583300359      -2.96700622336674782E-002   0.0000000000000000     
  0.41486205303996909      -3.46219258393376458E-002   0.0000000000000000     
  0.40200622164161165      -3.84640724028161782E-002   0.0000000000000000     
  0.38915980334551176      -4.15100528789298165E-002   0.0000000000000000     
  0.37620867518508017      -4.31817302020889721E-002   0.0000000000000000     
  0.36942755010466549      -4.53686379671108184E-002   0.0000000000000000     
  0.36199279024566289      -4.59588742031039818E-002   0.0000000000000000     
  0.35698518212354852      -4.67433403267266678E-002   0.0000000000000000     
  0.35379351407458792      -4.83919894065573467E-002   0.0000000000000000     
  0.34830977994440632      -5.41519905868058440E-002   0.0000000000000000     
  0.34169020662200050      -6.25319488352724107E-002   0.0000000000000000     
  0.31468340461958372      -6.86734435331731868E-002   0.0000000000000000     
  0.39861251318519414       2.66051607294245963E-002   0.0000000000000000     
  0.39875866427637147       2.63404683838678114E-002   0.0000000000000000     
  0.39856300559594077       2.55871115717010641E-002   0.0000000000000000     
  0.39948640232509447       2.57939405194988758E-002   0.0000000000000000     
  0.39995401702332678       2.65697107951914160E-002   0.0000000000000000     
  0.39964621462160599       2.74790277247832677E-002   0.0000000000000000     
  0.39924627113350464       2.78303920831132375E-002   0.0000000000000000     
  0.39885848988357658       2.78755819462478786E-002   0.0000000000000000     
  0.39858488121127772       2.77636615594631896E-002   0.0000000000000000     
  0.39828896249954371       2.74057337238271699E-002   0.0000000000000000     
  0.39804968172903354       2.66518948592865644E-002   0.0000000000000000     
  0.39857611857101227       2.57517126654719757E-002   0.0000000000000000     
  0.39938297831230807       2.57356199576796105E-002   0.0000000000000000     
  0.39980587634605175       2.62571533513450937E-002   0.0000000000000000     
  0.40006583385641575       2.68276954199675420E-002   0.0000000000000000     
  0.39908864221280532       2.73672399844759745E-002   0.0000000000000000     
  4.75315153452540717E-002  0.17268283087608888        0.0000000000000000     
  0.10285854007105233       0.24690169942076107        0.0000000000000000     
  0.19542477025010524       0.31086505646850549        0.0000000000000000     
  0.11304661029323546       0.17754137300418105        0.0000000000000000     
  5.88877228856370533E-002  9.35742857940256023E-002   0.0000000000000000     
  0.18584503042690959       0.23162779074024856        0.0000000000000000     
  0.12865153682096384       0.10296056043249602        0.0000000000000000     
  0.30948868966137061       0.32437692727094103        0.0000000000000000     
  0.33255990521787304      -5.53270313805239514E-002   0.0000000000000000     
  0.27119491255014089       0.27415592982539816        0.0000000000000000     
  0.18194090731541476       0.16517801380760347        0.0000000000000000     
  8.69723719187660282E-002  2.53451959487427901E-002   0.0000000000000000     
  0.33298794005703303      -3.41929555760904225E-002   0.0000000000000000     
  0.24403807398600039       0.20341749624113356        0.0000000000000000     
  0.33226194790421959      -2.40788967637321875E-002   0.0000000000000000     
  0.18997231530941114       0.10527406626655772        0.0000000000000000     
  0.31673325730745167       1.19532497041968788E-002   0.0000000000000000     
  0.15702767292617348       5.26699546919644490E-002   0.0000000000000000     
  0.34808501858650592       0.27617441039316637        0.0000000000000000     
  0.34631516006455970      -5.03619780355636579E-002   0.0000000000000000     