# vtk DataFile Version 4.2
Incompressible Euler
ASCII
 
DATASET UNSTRUCTURED_GRID
POINTS   400 DOUBLE
   0.0000000000000000        0.0000000000000000        0.0000000000000000     
  5.26315789473684181E-002   0.0000000000000000        0.0000000000000000     
  0.10526315789473684        0.0000000000000000        0.0000000000000000     
  0.15789473684210525        0.0000000000000000        0.0000000000000000     
  0.21052631578947367        0.0000000000000000        0.0000000000000000     
  0.26315789473684209        0.0000000000000000        0.0000000000000000     
  0.31578947368421051        0.0000000000000000        0.0000000000000000     
  0.36842105263157893        0.0000000000000000        0.0000000000000000     
  0.42105263157894735        0.0000000000000000        0.0000000000000000     
  0.47368421052631576        0.0000000000000000        0.0000000000000000     
  0.52631578947368418        0.0000000000000000        0.0000000000000000     
  0.57894736842105265        0.0000000000000000        0.0000000000000000     
  0.63157894736842102        0.0000000000000000        0.0000000000000000     
  0.68421052631578938        0.0000000000000000        0.0000000000000000     
  0.73684210526315785        0.0000000000000000        0.0000000000000000     
  0.78947368421052633        0.0000000000000000        0.0000000000000000     
  0.84210526315789469        0.0000000000000000        0.0000000000000000     
  0.89473684210526305        0.0000000000000000        0.0000000000000000     
  0.94736842105263153        0.0000000000000000        0.0000000000000000     
   1.0000000000000000        0.0000000000000000        0.0000000000000000     
   0.0000000000000000       5.26315789473684181E-002   0.0000000000000000     
  5.26315789473684181E-002  5.26315789473684181E-002   0.0000000000000000     
  0.10526315789473684       5.26315789473684181E-002   0.0000000000000000     
  0.15789473684210525       5.26315789473684181E-002   0.0000000000000000     
  0.21052631578947367       5.26315789473684181E-002   0.0000000000000000     
  0.26315789473684209       5.26315789473684181E-002   0.0000000000000000     
  0.31578947368421051       5.26315789473684181E-002   0.0000000000000000     
  0.36842105263157893       5.26315789473684181E-002   0.0000000000000000     
  0.42105263157894735       5.26315789473684181E-002   0.0000000000000000     
  0.47368421052631576       5.26315789473684181E-002   0.0000000000000000     
  0.52631578947368418       5.26315789473684181E-002   0.0000000000000000     
  0.57894736842105265       5.26315789473684181E-002   0.0000000000000000     
  0.63157894736842102       5.26315789473684181E-002   0.0000000000000000     
  0.68421052631578938       5.26315789473684181E-002   0.0000000000000000     
  0.73684210526315785       5.26315789473684181E-002   0.0000000000000000     
  0.78947368421052633       5.26315789473684181E-002   0.0000000000000000     
  0.84210526315789469       5.26315789473684181E-002   0.0000000000000000     
  0.89473684210526305       5.26315789473684181E-002   0.0000000000000000     
  0.94736842105263153       5.26315789473684181E-002   0.0000000000000000     
   1.0000000000000000       5.26315789473684181E-002   0.0000000000000000     
   0.0000000000000000       0.10526315789473684        0.0000000000000000     
  5.26315789473684181E-002  0.10526315789473684        0.0000000000000000     
  0.10526315789473684       0.10526315789473684        0.0000000000000000     
  0.15789473684210525       0.10526315789473684        0.0000000000000000     
  0.21052631578947367       0.10526315789473684        0.0000000000000000     
  0.26315789473684209       0.10526315789473684        0.0000000000000000     
  0.31578947368421051       0.10526315789473684        0.0000000000000000     
  0.36842105263157893       0.10526315789473684        0.0000000000000000     
  0.42105263157894735       0.10526315789473684        0.0000000000000000     
  0.47368421052631576       0.10526315789473684        0.0000000000000000     
  0.52631578947368418       0.10526315789473684        0.0000000000000000     
  0.57894736842105265       0.10526315789473684        0.0000000000000000     
  0.63157894736842102       0.10526315789473684        0.0000000000000000     
  0.68421052631578938       0.10526315789473684        0.0000000000000000     
  0.73684210526315785       0.10526315789473684        0.0000000000000000     
  0.78947368421052633       0.10526315789473684        0.0000000000000000     
  0.84210526315789469       0.10526315789473684        0.0000000000000000     
  0.89473684210526305       0.10526315789473684        0.0000000000000000     
  0.94736842105263153       0.10526315789473684        0.0000000000000000     
   1.0000000000000000       0.10526315789473684        0.0000000000000000     
   0.0000000000000000       0.15789473684210525        0.0000000000000000     
  5.26315789473684181E-002  0.15789473684210525        0.0000000000000000     
  0.10526315789473684       0.15789473684210525        0.0000000000000000     
  0.15789473684210525       0.15789473684210525        0.0000000000000000     
  0.21052631578947367       0.15789473684210525        0.0000000000000000     
  0.26315789473684209       0.15789473684210525        0.0000000000000000     
  0.31578947368421051       0.15789473684210525        0.0000000000000000     
  0.36842105263157893       0.15789473684210525        0.0000000000000000     
  0.42105263157894735       0.15789473684210525        0.0000000000000000     
  0.47368421052631576       0.15789473684210525        0.0000000000000000     
  0.52631578947368418       0.15789473684210525        0.0000000000000000     
  0.57894736842105265       0.15789473684210525        0.0000000000000000     
  0.63157894736842102       0.15789473684210525        0.0000000000000000     
  0.68421052631578938       0.15789473684210525        0.0000000000000000     
  0.73684210526315785       0.15789473684210525        0.0000000000000000     
  0.78947368421052633       0.15789473684210525        0.0000000000000000     
  0.84210526315789469       0.15789473684210525        0.0000000000000000     
  0.89473684210526305       0.15789473684210525        0.0000000000000000     
  0.94736842105263153       0.15789473684210525        0.0000000000000000     
   1.0000000000000000       0.15789473684210525        0.0000000000000000     
   0.0000000000000000       0.21052631578947367        0.0000000000000000     
  5.26315789473684181E-002  0.21052631578947367        0.0000000000000000     
  0.10526315789473684       0.21052631578947367        0.0000000000000000     
  0.15789473684210525       0.21052631578947367        0.0000000000000000     
  0.21052631578947367       0.21052631578947367        0.0000000000000000     
  0.26315789473684209       0.21052631578947367        0.0000000000000000     
  0.31578947368421051       0.21052631578947367        0.0000000000000000     
  0.36842105263157893       0.21052631578947367        0.0000000000000000     
  0.42105263157894735       0.21052631578947367        0.0000000000000000     
  0.47368421052631576       0.21052631578947367        0.0000000000000000     
  0.52631578947368418       0.21052631578947367        0.0000000000000000     
  0.57894736842105265       0.21052631578947367        0.0000000000000000     
  0.63157894736842102       0.21052631578947367        0.0000000000000000     
  0.68421052631578938       0.21052631578947367        0.0000000000000000     
  0.73684210526315785       0.21052631578947367        0.0000000000000000     
  0.78947368421052633       0.21052631578947367        0.0000000000000000     
  0.84210526315789469       0.21052631578947367        0.0000000000000000     
  0.89473684210526305       0.21052631578947367        0.0000000000000000     
  0.94736842105263153       0.21052631578947367        0.0000000000000000     
   1.0000000000000000       0.21052631578947367        0.0000000000000000     
   0.0000000000000000       0.26315789473684209        0.0000000000000000     
  5.26315789473684181E-002  0.26315789473684209        0.0000000000000000     
  0.10526315789473684       0.26315789473684209        0.0000000000000000     
  0.15789473684210525       0.26315789473684209        0.0000000000000000     
  0.21052631578947367       0.26315789473684209        0.0000000000000000     
  0.26315789473684209       0.26315789473684209        0.0000000000000000     
  0.31578947368421051       0.26315789473684209        0.0000000000000000     
  0.36842105263157893       0.26315789473684209        0.0000000000000000     
  0.42105263157894735       0.26315789473684209        0.0000000000000000     
  0.47368421052631576       0.26315789473684209        0.0000000000000000     
  0.52631578947368418       0.26315789473684209        0.0000000000000000     
  0.57894736842105265       0.26315789473684209        0.0000000000000000     
  0.63157894736842102       0.26315789473684209        0.0000000000000000     
  0.68421052631578938       0.26315789473684209        0.0000000000000000     
  0.73684210526315785       0.26315789473684209        0.0000000000000000     
  0.78947368421052633       0.26315789473684209        0.0000000000000000     
  0.84210526315789469       0.26315789473684209        0.0000000000000000     
  0.89473684210526305       0.26315789473684209        0.0000000000000000     
  0.94736842105263153       0.26315789473684209        0.0000000000000000     
   1.0000000000000000       0.26315789473684209        0.0000000000000000     
   0.0000000000000000       0.31578947368421051        0.0000000000000000     
  5.26315789473684181E-002  0.31578947368421051        0.0000000000000000     
  0.10526315789473684       0.31578947368421051        0.0000000000000000     
  0.15789473684210525       0.31578947368421051        0.0000000000000000     
  0.21052631578947367       0.31578947368421051        0.0000000000000000     
[...]
POINT_DATA   400
SCALARS pressure DOUBLE
LOOKUP_TABLE default
                       NaN
                       NaN
                       NaN
                       NaN
                       NaN
                       NaN
                       NaN
   6195570.0282325577     
   3965919.2642805269     
   1970054.1485154810     
   90605.756820770985     
  2.18989460191728410E+023
 -8.68843408807663648E+022
   32718.107860442695     
   29771.671331431546     
   13810536766088466.     
  -2676964542584140.5     
  -1178862276632545.5     
  -1733314192425743.0     
  -238373057285011.75     
                       NaN
   2568877645343.4390     
  -756775393729.98657     
   1833624053.4402230     
                       NaN
                       NaN
   1727459247.1762996     
                       NaN
                       NaN
                       NaN
  -87588.757885356739     
  7.64702639125918992E+022
 -1.04451904808259857E+024
  -11257.777390981206     
  -26223.640216560267     
   13353279879255264.     
  -43894625198499736.     
   4884218939615557.0     
  -3634879556697067.0     
  -1299275058669317.0     
                       NaN
   877135028549.14758     
  -553213149025.68445     
   1092041283.8855135     
                       NaN
                       NaN
  -365275855.50129211     
                       NaN
                       NaN
                       NaN
                       NaN
   14689.157874271988     
  5.30186578405159732E+023
  3.71809646109365608E+023
   4795.5848194971859     
   2068.9658528790937     
   23782787317615592.     
  -7548048896681057.0     
   15409909175931340.     
   318895286575735.13     
                       NaN
   77678825287.631775     
  -52426993413.735596     
                       NaN
   87478814.734116286     
  -45724886.002086833     
                       NaN
                       NaN
                       NaN
  -2898417.8455681186     
                       NaN
                       NaN
                       NaN
  -161.02633709999500     
                       NaN
  -56.602839366827716     
                       NaN
   5821457267166122.0     
  -18735905092038564.     
   9430596957883.9844     
                       NaN
   5752533412.0776558     
                       NaN
                       NaN
                       NaN
   52819308.528108746     
                       NaN
                       NaN
   5271812.7929581869     
   621133.51498788258     
   343638.65347657236     
  0.12326533961303489     
                       NaN
  0.12507859047768147     
                       NaN
  0.11274003567490905     
                       NaN
  -5047702773107149.0     
   25874910053898456.     
  -23035757153845.781     
                       NaN
                       NaN
   622726.33631855575     
   1908803.7642018050     
                       NaN
                       NaN
   1076181317.7178628     
  -28263.071741585900     
  -1075469.4547340756     
  -87813.119231872828     
  -578.39899016393827     
                       NaN
                       NaN
                       NaN
  7.00961241957203801E-002
                       NaN
  0.19902780603454431     
                       NaN
  -1788455771614953.0     
  -34385833600163896.     
  -270032119869488.50     
   737293179491.26123     
  -2551.4677172727625     
  -198648.49196745607     
                       NaN
                       NaN
  -2267974.8315621559     
   1232.6690690878702     
   143819.70934727829     
   70720.426363959312     
  0.13156034117931178     
                       NaN
                       NaN
                       NaN
  0.12492926937080374     
                       NaN
  0.12073623888046300     
                       NaN
  -10405331084576196.     
   78958455088745456.     
   3260735477.0163002     
                       NaN
                       NaN
   10842.232701061146     
                       NaN
                       NaN
                       NaN
   109381.12458155754     
  -23750.399447958433     
   3.6890072689245721     
                       NaN
  0.12502253903052424     
                       NaN
                       NaN
                       NaN
  0.12533145260324052     
                       NaN
  0.14089394204843297     
                       NaN
  -47863803145512352.     
  -113325098.70696568     
                       NaN
                       NaN
   5452.8240145796990     
                       NaN
                       NaN
                       NaN
                       NaN
                       NaN
   3.6383951519079401     
                       NaN
  0.12500600796931266     
                       NaN
                       NaN
                       NaN
  0.12528972305016067     
                       NaN
  0.13345497109445620     
                       NaN
  0.19539524231263705     
   37.844172882035124     
                       NaN
                       NaN
                       NaN
   1050.8018139322605     
                       NaN
                       NaN
                       NaN
                       NaN
   3.6467969724107010     
  0.12500445511652275     
                       NaN
  0.12499909996238838     
                       NaN
                       NaN
                       NaN
  0.12178203323466578     
                       NaN
  8.41947857180964376E-002
                       NaN
  -52.630073683648256     
                       NaN
                       NaN
                       NaN
  -9.4573820747795256     
   3898.7923611955212     
                       NaN
                       NaN
                       NaN
                       NaN
  0.12499997470721147     
                       NaN
  0.12499926775601126     
                       NaN
                       NaN
                       NaN
  0.12191809497258123     
                       NaN
  8.41911999889847634E-002
                       NaN
   94.834873446294907     
                       NaN
                       NaN
                       NaN
                       NaN
  -38.078563168446834     
                       NaN
   2.5844771155990949     
                       NaN
                       NaN
  0.12500241969700565     
  0.12500056680867117     
                       NaN
  0.12500567891054651     
                       NaN
                       NaN
                       NaN
  0.13356678290197110     
                       NaN
  0.19537700110210304     
  -713.89241395280828     
                       NaN
                       NaN
                       NaN
                       NaN
   1.0568768402666877     
                       NaN
   2.5841751507678623     
                       NaN
                       NaN
                       NaN
  0.12500014565686624     
                       NaN
  0.12500415402938408     
                       NaN
                       NaN
                       NaN
  0.13353377906193237     
                       NaN
  0.19537735353412583     
                       NaN
                       NaN
                       NaN
                       NaN
                       NaN
                       NaN
  0.64166401163954823     
                       NaN
                       NaN
                       NaN
                       NaN
  0.12500073251856827     
  0.12499953795342604     
                       NaN
  0.12494296380398406     
                       NaN
                       NaN
                       NaN
  8.41974547491344122E-002
                       NaN
  -9938.1819457442252     
  0.78622711916725074     
                       NaN
                       NaN
                       NaN
                       NaN
  0.62942947880052047     
                       NaN
                       NaN
                       NaN
                       NaN
                       NaN
  0.12499646015426677     
                       NaN
  0.12493048851454208     
                       NaN
                       NaN
                       NaN
  8.42005342581388649E-002
                       NaN
   14199.438307770177     
   1.6799505341676628     
                       NaN
                       NaN
                       NaN
                       NaN
                       NaN
   2.7676213986392804     
                       NaN
                       NaN
                       NaN
                       NaN
  0.12501738476802152     
  0.12502758840188680     
                       NaN
  0.12539068200467993     
                       NaN
                       NaN
                       NaN
  0.19535047134444589     
  -10157.245550249208     
                       NaN
                       NaN
                       NaN
                       NaN
                       NaN
                       NaN
   2.7820295990381698     
                       NaN
                       NaN
                       NaN
                       NaN
                       NaN
  0.12487505542971593     
                       NaN
  0.12518572965519698     
                       NaN
                       NaN
                       NaN
  0.19536125420316577     
   2882.9121773459310     
                       NaN
                       NaN
                       NaN
                       NaN
                       NaN
                       NaN
   2.1232951857079589     
                       NaN
                       NaN
                       NaN
                       NaN
                       NaN
  0.12512951098763544     
  0.12517314366519100     
                       NaN
  0.12226844373244097     
                       NaN
                       NaN
                       NaN
                       NaN
                       NaN
                       NaN
                       NaN
                       NaN
                       NaN
                       NaN
   1.7307395097762452     
 -0.70193655790967180     
                       NaN
                       NaN
                       NaN
                       NaN
                       NaN
  0.11129816677730311     
                       NaN
  0.10958795674112616     
                       NaN
                       NaN
                       NaN
   2.0044573554797234     
  0.78295484358419010     
   1.2364027664250776     
   1.2564349677290543     
   1.2594910987931325     
   1.2488472171282907     
   1.2914379084848102     
   1.2923044588238215     
   1.5667020198548303     
                       NaN
                       NaN
                       NaN
                       NaN
                       NaN
  0.15215471782255613     
  0.15192051668641432     
  0.15183233637399213     
  0.14811057566058972     
  0.13489599010232942     
  0.13642438888957001     
VECTORS velocity DOUBLE
                       NaN                       NaN   0.0000000000000000     
                       NaN                       NaN   0.0000000000000000     
                       NaN                       NaN   0.0000000000000000     
                       NaN                       NaN   0.0000000000000000     
                       NaN                       NaN   0.0000000000000000     
                       NaN                       NaN   0.0000000000000000     
                       NaN                       NaN   0.0000000000000000     
   4361082.4918856639       -3117343.9445891506        0.0000000000000000     
  -3056428.0886190124       -20885809.311272550        0.0000000000000000     
  -6812823.6246248418       -29597243.859259225        0.0000000000000000     
  -7023349.8730439851       -30129224.403376982        0.0000000000000000     
  -11175412.341144590       -46353742.665008418        0.0000000000000000     
  -7069680.3327229125       -30217839.943130698        0.0000000000000000     
  -219971.29720788804       -979284.72531812219        0.0000000000000000     
  -43786.514850655956       -443589.63799541484        0.0000000000000000     
   84311.866679158920       -265856.92332569574        0.0000000000000000     
   162023.30226681248       -270870.50247547403        0.0000000000000000     
   145227.41150578257       -282534.47385652573        0.0000000000000000     
   219481.74292178170       -384203.44282249402        0.0000000000000000     
   192685.90884877663       -202097.46449433063        0.0000000000000000     
                       NaN                       NaN   0.0000000000000000     
   1962387.1208729998        5992380.3327877205        0.0000000000000000     
   1647244.6220391733        5024218.3302988242        0.0000000000000000     
   1375636.2646956500        4196470.5245762831        0.0000000000000000     
                       NaN                       NaN   0.0000000000000000     
                       NaN                       NaN   0.0000000000000000     
  -393031.37324571481       -3599697.8732372080        0.0000000000000000     
                       NaN                       NaN   0.0000000000000000     
                       NaN                       NaN   0.0000000000000000     
                       NaN                       NaN   0.0000000000000000     
                       NaN                       NaN   0.0000000000000000     
  -16697418.078496512       -67039722.577554904        0.0000000000000000     
                       NaN                       NaN   0.0000000000000000     
  -261830.77549006077       -1136136.5467214901        0.0000000000000000     
                       NaN                       NaN   0.0000000000000000     
   198644.48439774947       -267893.95026612288        0.0000000000000000     
   160572.50379432077       -269891.48557215231        0.0000000000000000     
   191868.98524271091       -370033.48825348244        0.0000000000000000     
   181256.04993419259       -306270.80124548415        0.0000000000000000     
   205367.19559041323       -414071.15624450782        0.0000000000000000     
                       NaN                       NaN   0.0000000000000000     
   1621526.9049612235        4945990.5832143677        0.0000000000000000     
   1398119.8441321582        4268931.6089813979        0.0000000000000000     
   5061013.3683692031        12002436.217103602        0.0000000000000000     
                       NaN                       NaN   0.0000000000000000     
                       NaN                       NaN   0.0000000000000000     
  -7519684.4977493491       -17298314.207782984        0.0000000000000000     
                       NaN                       NaN   0.0000000000000000     
                       NaN                       NaN   0.0000000000000000     
                       NaN                       NaN   0.0000000000000000     
                       NaN                       NaN   0.0000000000000000     
                       NaN                       NaN   0.0000000000000000     
  -10904381.715938024       -45320264.972690023        0.0000000000000000     
                       NaN                       NaN   0.0000000000000000     
  -33854.506207444807       -391967.96670340758        0.0000000000000000     
                       NaN                       NaN   0.0000000000000000     
   160579.60702504689       -269542.11688018515        0.0000000000000000     
   197780.58563759568       -354608.06304160436        0.0000000000000000     
   189897.51015121181       -319076.41956028872        0.0000000000000000     
   199830.09019570757       -431910.31923712417        0.0000000000000000     
                       NaN                       NaN   0.0000000000000000     
   1494019.0163018741        4551579.5541847730        0.0000000000000000     
   387974.47333717666        1190134.4699549160        0.0000000000000000     
                       NaN                       NaN   0.0000000000000000     
  -122856527.02720818       -271435265.09634203        0.0000000000000000     
  -22235634.218778115       -48972634.491038971        0.0000000000000000     
                       NaN                       NaN   0.0000000000000000     
                       NaN                       NaN   0.0000000000000000     
                       NaN                       NaN   0.0000000000000000     
                       NaN                       NaN   0.0000000000000000     
                       NaN                       NaN   0.0000000000000000     
                       NaN                       NaN   0.0000000000000000     
                       NaN                       NaN   0.0000000000000000     
  -530329.71007866552       -1727817.3207299742        0.0000000000000000     
                       NaN                       NaN   0.0000000000000000     
   37874.543018460630       -237782.23118226120        0.0000000000000000     
                       NaN                       NaN   0.0000000000000000     
   193533.96768762945       -312682.78373823839        0.0000000000000000     
   194681.82675908285       -310055.01494268922        0.0000000000000000     
   359775.09773257136       -11663.793909691505        0.0000000000000000     
                       NaN                       NaN   0.0000000000000000     
   623704.85474022222        1874508.4899475861        0.0000000000000000     
                       NaN                       NaN   0.0000000000000000     
                       NaN                       NaN   0.0000000000000000     
                       NaN                       NaN   0.0000000000000000     
  -43098453.773611858       -93517860.061442152        0.0000000000000000     
                       NaN                       NaN   0.0000000000000000     
                       NaN                       NaN   0.0000000000000000     
  -4022521.2399339140       -21460900.895243276        0.0000000000000000     
  -5871105.4339675717       -25782488.670775682        0.0000000000000000     
                       NaN                       NaN   0.0000000000000000     
   197095.01270159567        173165.92127302164        0.0000000000000000     
                       NaN                       NaN   0.0000000000000000     
 -1.98783836847812694E-002  1.00505259067848237E-002   0.0000000000000000     
                       NaN                       NaN   0.0000000000000000     
   32228.292859923309       -4512.9723608363156        0.0000000000000000     
                       NaN                       NaN   0.0000000000000000     
   207755.49470514263       -299126.69808926160        0.0000000000000000     
   162787.35746129364       -166732.05376639179        0.0000000000000000     
   242357.35313328190       -297813.00307490199        0.0000000000000000     
                       NaN                       NaN   0.0000000000000000     
                       NaN                       NaN   0.0000000000000000     
  -56300.146345483692       -157789.62709765168        0.0000000000000000     
  -847598.22663950198       -2572087.0343189389        0.0000000000000000     
                       NaN                       NaN   0.0000000000000000     
                       NaN                       NaN   0.0000000000000000     
  -15363076.283593204       -31867863.520637292        0.0000000000000000     
  -4786451.6256064558       -21034919.599044126        0.0000000000000000     
                       NaN                       NaN   0.0000000000000000     
  -5592356.1854888629       -25101230.284952443        0.0000000000000000     
  -6207676.0671537807       -22797296.339777302        0.0000000000000000     
                       NaN                       NaN   0.0000000000000000     
                       NaN                       NaN   0.0000000000000000     
                       NaN                       NaN   0.0000000000000000     
  -93601.514093079240        152434.41761068581        0.0000000000000000     