# vtk DataFile Version 4.2
Incompressible Euler
ASCII
 
DATASET UNSTRUCTURED_GRID
POINTS  5696 DOUBLE
  0.99999999999999800      -6.47363061738125950E-017   0.0000000000000000     
   10.000000000000000       0.50000000000000000        0.0000000000000000     
  0.99805018367148202      -4.47631071561402024E-004   0.0000000000000000     
  0.99594346779770604      -9.26149157330740042E-004   0.0000000000000000     
  0.99366617164320403      -1.43112207646983996E-003   0.0000000000000000     
  0.99120305975290102      -1.95504890027681016E-003   0.0000000000000000     
  0.98853713801732601      -2.48670335152883018E-003   0.0000000000000000     
  0.98562191199673499      -3.02402984140573991E-003   0.0000000000000000     
  0.98243212447240802      -3.56704283327663983E-003   0.0000000000000000     
  0.97894704028788504      -4.11700703252065002E-003   0.0000000000000000     
  0.97514619345531695      -4.67837491338504025E-003   0.0000000000000000     
  0.97100923004943696      -5.26050772055982989E-003   0.0000000000000000     
  0.96651566570067005      -5.87812445094697007E-003   0.0000000000000000     
  0.96164204225212102      -6.53884663812286018E-003   0.0000000000000000     
  0.95636304550707996      -7.24507624007630999E-003   0.0000000000000000     
  0.95065334691540704      -7.99940462376289019E-003   0.0000000000000000     
  0.94448820477638995      -8.80473774659347973E-003   0.0000000000000000     
  0.93784443333151901      -9.66437692920697929E-003   0.0000000000000000     
  0.93070213352157305      -1.05819966280839006E-002   0.0000000000000000     
  0.92304819040825403      -1.15596223197162000E-002   0.0000000000000000     
  0.91488418605174204      -1.25955882548411998E-002   0.0000000000000000     
  0.90624678322987495      -1.36834933695423999E-002   0.0000000000000000     
  0.89726075344581602      -1.48058817285660997E-002   0.0000000000000000     
  0.88818451577838797      -1.59291863324684986E-002   0.0000000000000000     
  0.87918296073381896      -1.70323779661304998E-002   0.0000000000000000     
  0.86771123113989002      -1.84216773873264010E-002   0.0000000000000000     
  0.85213630127709294      -2.02763982870700007E-002   0.0000000000000000     
  0.83227046450278797      -2.25900986738548012E-002   0.0000000000000000     
  0.81239860525585395      -2.48488701130957015E-002   0.0000000000000000     
  0.79252086525691601      -2.70555170351341016E-002   0.0000000000000000     
  0.77263738733900000      -2.92113854854090006E-002   0.0000000000000000     
  0.75274831584069402      -3.13158386413489032E-002   0.0000000000000000     
  0.73285379393048500      -3.33680949136843999E-002   0.0000000000000000     
  0.71295391090995897      -3.53672471177000000E-002   0.0000000000000000     
  0.69304868357971205      -3.73122189912991967E-002   0.0000000000000000     
  0.67313812268197704      -3.92018832078434992E-002   0.0000000000000000     
  0.65322222546859099      -4.10345570189031977E-002   0.0000000000000000     
  0.63330097916826900      -4.28081451190773024E-002   0.0000000000000000     
  0.61337436962250602      -4.45204355208290020E-002   0.0000000000000000     
  0.59344237866926597      -4.61688447224056983E-002   0.0000000000000000     
  0.57350498567594599      -4.77506371868281973E-002   0.0000000000000000     
  0.55356215170846201      -4.92622615687592982E-002   0.0000000000000000     
  0.53361382719436601      -5.06996346862439023E-002   0.0000000000000000     
  0.51365998919267497      -5.20583446458786972E-002   0.0000000000000000     
  0.49370064454305101      -5.33336212958048020E-002   0.0000000000000000     
  0.47386161451805398      -5.45130490111045002E-002   0.0000000000000000     
  0.45441350145219200      -5.55785189699962018E-002   0.0000000000000000     
  0.43534892559747002      -5.65301889439090988E-002   0.0000000000000000     
  0.41666067338771601      -5.73681047293500002E-002   0.0000000000000000     
  0.39834170385402401      -5.80917241560768988E-002   0.0000000000000000     
  0.38038514105542998      -5.87005235694324987E-002   0.0000000000000000     
  0.36278433032731000      -5.91947595006108995E-002   0.0000000000000000     
  0.34553277231719998      -5.95742272635886999E-002   0.0000000000000000     
  0.32862412373212202      -5.98375749416234989E-002   0.0000000000000000     
  0.31205224770286799      -5.99840946904564992E-002   0.0000000000000000     
  0.29581118826637898      -6.00134255089578988E-002   0.0000000000000000     
  0.27990615293740401      -5.99249030064532978E-002   0.0000000000000000     
  0.26436026204579899      -5.97176979070348016E-002   0.0000000000000000     
  0.24916486453967401      -5.93910428387701972E-002   0.0000000000000000     
  0.23431157545055800      -5.89444916822646978E-002   0.0000000000000000     
  0.21979231166187899      -5.83767544619673007E-002   0.0000000000000000     
  0.20559925571684901      -5.76865363208710971E-002   0.0000000000000000     
  0.19172493157145401      -5.68715946972871977E-002   0.0000000000000000     
  0.17816217002216400      -5.59292414825331013E-002   0.0000000000000000     
  0.16490416402368699      -5.48562766238690006E-002   0.0000000000000000     
  0.15191209223343000      -5.36440164766908978E-002   0.0000000000000000     
  0.13913726011126201      -5.22819496769379999E-002   0.0000000000000000     
  0.12660125145605400      -5.07624514857083972E-002   0.0000000000000000     
  0.11432718031223700      -4.90776304171003999E-002   0.0000000000000000     
  0.10233999004831600      -4.72181760157431990E-002   0.0000000000000000     
  9.06668131947580974E-002 -4.51739366346007032E-002   0.0000000000000000     
  7.93374710444112036E-002 -4.29334352400317990E-002   0.0000000000000000     
  6.83854583372612984E-002 -4.04818383186818023E-002   0.0000000000000000     
  5.77054771674528968E-002 -3.77594517176840019E-002   0.0000000000000000     
  4.73259322578018019E-002 -3.47205623761272994E-002   0.0000000000000000     
  3.90528897251879031E-002 -3.19392524284161997E-002   0.0000000000000000     
  3.22120581357258975E-002 -2.93237777370299012E-002   0.0000000000000000     
  2.65431835098984999E-002 -2.68707599265162987E-002   0.0000000000000000     
  2.18271100416322986E-002 -2.45693256081821985E-002   0.0000000000000000     
  1.78861266990913009E-002 -2.24059842883673997E-002   0.0000000000000000     
  1.45796188498930005E-002 -2.03629198204859016E-002   0.0000000000000000     
  1.14881736905057992E-002 -1.81972281584884994E-002   0.0000000000000000     
  8.82914549633244047E-003 -1.60549686534538008E-002   0.0000000000000000     
  6.57129926777600976E-003 -1.39348902982898998E-002   0.0000000000000000     
  4.70375746801844023E-003 -1.18571005612110002E-002   0.0000000000000000     
  3.20908921979542018E-003 -9.84628336074198918E-003   0.0000000000000000     
  2.16640271272869984E-003 -8.12723556121741977E-003   0.0000000000000000     
  1.37621518680806996E-003 -6.50374580242531024E-003   0.0000000000000000     
  8.05103783103060960E-004 -4.99371876731165027E-003   0.0000000000000000     
  4.17788299410523005E-004 -3.60712100331295020E-003   0.0000000000000000     
  1.77184843329112994E-004 -2.34939223863034992E-003   0.0000000000000000     
  4.80224181606489993E-005 -1.22098319250274999E-003   0.0000000000000000     
  3.40958833254106978E-007 -1.02534300866634996E-004   0.0000000000000000     
  2.67070300734010011E-005  9.09832666466583052E-004   0.0000000000000000     
  1.27220159712384992E-004  1.99003744247769994E-003   0.0000000000000000     
  3.26410220357768017E-004  3.18927947781754003E-003   0.0000000000000000     
  6.56981429772620002E-004  4.51640362800142040E-003   0.0000000000000000     
  1.15633949013287996E-003  5.96946562185736006E-003   0.0000000000000000     
  1.86068532554319000E-003  7.54332129774350994E-003   0.0000000000000000     
  2.80729011928343994E-003  9.22451455744359959E-003   0.0000000000000000     
  4.02698113505658983E-003  1.09963355189443002E-002   0.0000000000000000     
  5.54549212880055958E-003  1.28400612135156997E-002   0.0000000000000000     
  7.38326166541617996E-003  1.47367814818066996E-002   0.0000000000000000     
  9.55410188670918065E-003  1.66710728048936989E-002   0.0000000000000000     
  1.20701979966374006E-002  1.86280124772706009E-002   0.0000000000000000     
  1.49394676871821997E-002  2.05973379004759996E-002   0.0000000000000000     
  1.82101295365248994E-002  2.25939308060208004E-002   0.0000000000000000     
  2.20512036186037985E-002  2.46851512020779991E-002   0.0000000000000000     
  2.65785745835467012E-002  2.68870331902804002E-002   0.0000000000000000     
  3.19336031087699007E-002  2.92100397224441012E-002   0.0000000000000000     
  3.82886131067880012E-002  3.16629615078741003E-002   0.0000000000000000     
  4.58521384363438991E-002  3.42514992638998025E-002   0.0000000000000000     
  5.48705405624312983E-002  3.69722442535104986E-002   0.0000000000000000     
  6.52739630588850955E-002  3.97255406997812019E-002   0.0000000000000000     
  7.59503687847169068E-002  4.22074732323493990E-002   0.0000000000000000     
  8.68915769224208046E-002  4.44578227904994031E-002   0.0000000000000000     
  9.81498018834100067E-002  4.65124178846371000E-002   0.0000000000000000     
  0.10974423325378301       4.83932690028959014E-002   0.0000000000000000     
  0.12164844515956701       5.01075366608391970E-002   0.0000000000000000     
  0.13383763391267400       5.16627828429118974E-002   0.0000000000000000     
  0.14628863198199299       5.30663499255236010E-002   0.0000000000000000     
  0.15897989160988801       5.43240505456809020E-002   0.0000000000000000     
  0.17189097934014400       5.54414163711363026E-002   0.0000000000000000     
  0.18500254890215900       5.64232170173797967E-002   0.0000000000000000     
  0.19842447778724501       5.72832070672801980E-002   0.0000000000000000     
[...]
POINT_DATA  5696
SCALARS pressure DOUBLE
LOOKUP_TABLE default
   1.0646935052229771     
   1.0000000000000000     
  0.97990840035850157     
   1.1571614426434256     
   1.0160476637416178     
  0.99620045547345648     
   1.2180418650077298     
  0.86027567860417653     
   1.1025998044383287     
   1.1620333802811635     
  0.91211705066407811     
   1.1512399847059633     
  0.91838451562907086     
   1.0699645144656746     
   1.0402382557063976     
   1.0103506243367251     
  0.99844867795709358     
  0.99857723741963866     
   1.1088973343785447     
  0.94603422847595275     
   1.0849752960160346     
  0.97979769380781045     
   1.0533981671752188     
  0.96652567257812516     
   1.0058841394601787     
   1.0205883009828276     
   1.0060669497592891     
   1.0721515331368989     
  0.93934427391899022     
   1.0486257873607163     
  0.96577380321260420     
   1.0327704702570830     
  0.96560663093199084     
   1.0119374547829585     
  0.99014712178374320     
   1.0082273373865169     
   1.0017867419821234     
  0.99940436237174357     
  0.99976658920539263     
  0.99375546987862406     
  0.99798407479209572     
  0.99437759192032327     
  0.99592537318553764     
  0.99295168680406720     
  0.99468565926932895     
  0.99410571857729169     
  0.99512373941259347     
  0.99518801232968279     
  0.99541537056055407     
  0.99484912835261996     
  0.99516518039006852     
  0.99515221982648627     
  0.99551481524916463     
  0.99556913907067268     
  0.99538034225214023     
  0.99563722758543594     
  0.99612354726823038     
  0.99657484997065438     
  0.99789478255377195     
  0.99755765898653492     
  0.99823610924846518     
  0.99873006733303604     
  0.99992253386609220     
   1.0015478685130053     
   1.0037369887649694     
   1.0062456178360437     
   1.0095254589320510     
   1.0127454741145459     
   1.0170623271493382     
   1.0213666009632434     
   1.0266566925284049     
   1.0326934283844913     
   1.0393373682670364     
   1.0476169318288511     
   1.0584150416238347     
   1.0681880716077974     
   1.0787443307618769     
   1.0884740730919813     
   1.0987712559343217     
   1.1090315538029143     
   1.1201841546124385     
   1.1203971628088816     
   1.1502558203601325     
   1.1557328029027223     
   1.2241405757903920     
   1.2046457239240651     
   1.1095168437915011     
   1.0565399847798163     
   1.0748215304427511     
   1.0418720818297185     
  0.98781821294661798     
  0.97163205872501657     
  0.92648833710553147     
  0.90431711410207616     
  0.87882684066491423     
  0.85194690379636684     
  0.81901576082894478     
  0.80296228542334536     
  0.77678645275831615     
  0.74255496951020339     
  0.72993292393822118     
  0.67926893241210617     
  0.72628250978651077     
  0.72317631613456512     
  0.76360484554044150     
  0.74665481745779472     
  0.76756829475585098     
  0.72595168477741223     
  0.75361098909960011     
  0.85393882251291375     
  0.55165267541746399     
   1.1031378701288883     
  0.52529167427159895     
  0.99582393303206318     
  0.77229507487008664     
  0.82232524902087434     
  0.87721474017370649     
  0.84767869476964386     
  0.86870708316932577     
  0.87152611623539100     
  0.87885219763505140     
  0.87286353621829671     
  0.87476751120895913     
  0.87785018351926936     
  0.87069894495773759     
  0.88664095639515683     
  0.90557691416076791     
  0.91453426609149335     
  0.90338292095755413     
  0.88623716878578140     
  0.88814681435710141     
  0.90442694702787141     
  0.92275222396080225     
  0.93080616164623853     
  0.93501799678337527     
  0.93932304771240460     
  0.93666093633935865     
  0.92257866342528838     
  0.91026780759944648     
  0.91916168138398191     
  0.94423832981413414     
  0.95911253473132230     
  0.95797440834349301     
  0.95285689643413529     
  0.95590817599484335     
  0.95829004066036938     
  0.95577470449226221     
  0.95281614853575558     
  0.95948127017821838     
  0.97235720551421689     
  0.97664073134849150     
  0.97036046919411845     
  0.96762933476246826     
  0.97036807393455859     
  0.97376437677831207     
  0.97662045804536346     
  0.98089197047032584     
  0.97841606419566607     
  0.98179431893573643     
  0.99403981098884764     
  0.99608130471593470     
  0.99802324693209765     
  0.99994760813536998     
  0.99746174609165195     
  0.99871020020357348     
  0.99835432409047697     
   1.0000371344602017     
  0.99955754260998586     
   1.0005268130460978     
   1.0042613898114250     
   1.0060377385324530     
   1.0078164578973963     
   1.0096524086692111     
   1.0119817792405568     
   1.0141477503105065     
   1.0147666009559237     
   1.0145423698268901     
   1.0183464279306729     
   1.0158427957121006     
   1.0269848682427840     
   1.0254546754268865     
   1.0430651576734007     
   1.0369433566371193     
   1.0531637529971711     
   1.0000000000000000     
   1.0000000000000000     
   1.0000000000000000     
   1.0000000000000000     
   1.0000000000000000     
   1.0000000000000000     
   1.0000000000000000     
   1.0000000000000000     
   1.0000000000000000     
   1.0000000000000000     
   1.0000000000000000     
   1.0000000000000000     
   1.0000000000000000     
   1.0000000000000000     
   1.0000000000000000     
   1.0000000000000000     
   1.0000000000000000     
   1.0000000000000000     
   1.0000000000000000     
   1.0000000000000000     
   1.0000000000000000     
   1.0000000000000000     
   1.0000000000000000     
   1.0000000000000000     
   1.0000000000000000     
   1.0000000000000000     
   1.0000000000000000     
   1.0000000000000000     
   1.0000000000000000     
   1.0000000000000000     
   1.0000000000000000     
   1.0000000000000000     
   1.0000000000000000     
   1.0000000000000000     
   1.0000000000000000     
   1.0000000000000000     
   1.0000000000000000     
   1.0000000000000000     
   1.0000000000000000     
   1.0000000000000000     
   1.0000000000000000     
   1.0000000000000000     
   1.0000000000000000     
   1.0000000000000000     
   1.0000000000000000     
   1.0000000000000000     
   1.0000000000000000     
   1.0000000000000000     
   1.0000000000000000     
   1.0000000000000000     
   1.0000000000000000     
   1.0000000000000000     
   1.0000000000000000     
   1.0000000000000000     
   1.0000000000000000     
   1.0000000000000000     
   1.0000000000000000     
   1.0000000000000000     
   1.0000000000000000     
   1.0000000000000000     
   1.0000000000000000     
   1.0000000000000000     
   1.0000000000000000     
   1.0000000000000000     
   1.0000000000000000     
  0.99095434990017151     
  0.97864957486816639     
  0.95343175762180332     
  0.97854307681966701     
   1.0115021472722345     
  0.95507355360230906     
  0.99932171266931780     
  0.93764610528414183     
  0.93711050298372056     
  0.99350043971602786     
   1.0073251286550857     
   1.0205693717526958     
   1.0334140235645501     
  0.97753580419479791     
   1.0274697008487872     
  0.91473147325689164     
   1.0067053443189817     
  0.92273498471743065     
  0.96073417372522629     
  0.98867604806199061     
   1.0426414559712986     
   1.0225116888399643     
   1.0326787218236244     
   1.0398979206149366     
  0.97406437166715343     
   1.0383215740560274     
  0.89811456155161251     
  0.95257648201940059     
   1.0100357549995824     
   1.0214161892396860     
   1.0598308867030501     
  0.91212071465959665     
  0.95728249359595952     
  0.99710473091412544     
   1.0407523821398772     
   1.0768466134661223     
   1.0672646757067972     
  0.98346846084358741     
   1.0544409939263639     
  0.93695038227956995     
   1.0211503376324969     
  0.88835757057871600     
  0.94303842276787808     
   1.0107240833731270     
   1.0344180733199784     
   1.0706126343504836     
  0.89263812270427767     
  0.97111404604100249     
  0.99757545112412882     
   1.0510246195950663     
   1.0910713597778381     
  0.93305273818591894     
  0.93439450092466503     
   1.0259704060913084     
  0.98547271179562834     
   1.0723762960224161     
   1.0942994205090377     
   1.0621624289099663     
  0.95893772371389374     
   1.0134899203920873     
  0.87111597356046833     
   1.0474854767040078     
   1.0824305851149074     
   1.0384014136891202     
   1.0043046264531861     
  0.97203221613951951     
  0.88158791279885396     
   1.0800130562325949     
   1.0587670149882076     
   1.0989319003251059     
  0.92772681869847706     
   1.0730944761835406     
   1.0273224337807569     
  0.92326229567730433     
  0.99012078801725845     
   1.0950935704030937     
   1.0498640202403060     
   1.0169295910502765     
   1.0601436497801533     
  0.96151747109618968     
  0.86045399278388279     
   1.0944133840851085     
   1.0388167149966161     
   1.0553933618596536     
   1.0515874223019173     
   1.0536391885965899     
   1.0701329995278599     
   1.0060821001502567     
  0.97917661169194836     
   1.0818982414291403     
   1.0691704379112272     
  0.86393345093389429     
   1.0597993608236767     
   1.0398146622826219     
   1.0462357376280105     
   1.1067709919218585     
  0.92038663045811686     
   1.0509550793982700     
   1.0411238138228145     
  0.95395988579511726     
   1.0312408106437023     
   1.0991708900002501     
  0.90320741671940585     
  0.99323764244190971     
   1.0454402658671016     
   1.0420612116512324     
   1.0504957037194464     
   1.0960101536511528     
   1.0777414594339014     
   1.0179891141332771     
  0.96308699742549742     
   1.0295771657538135     
  0.84219786512706030     
   1.0479555139049279     
   1.0933657813535838     
   1.0443814485494929     
  0.93370960541298387     
   1.0408253773689697     
   1.0692199969467175     
   1.0097027036615922     
  0.98506197826162634     
   1.0873385012514085     
   1.0389250819463582     
   1.0600281865944468     
  0.94298309139362113     
  0.83327780925727801     
   1.1121493378694496     
  0.90360819958467808     
   1.0362772489852878     
   1.0309755317357876     
  0.95291610315061470     
   1.0763398848892760     
   1.0992527099887606     
   1.0446465694793954     
   1.0513067174693091     
  0.90283445006675767     
   1.0412425797135303     
   1.0770678280674233     
  0.99608138784705491     
   1.0416224856348755     
   1.0438784033499899     
   1.0513481609316617     
   1.0402240091516248     
   1.0201280239778900     
  0.97201296289030337     
   1.1312861433833810     
   1.0366692866801042     
   1.0799593128378069     
   1.1145031455602641     
   1.0951989343340138     
   1.0691838672440901     
   1.0402353443836778     
  0.82055238377625694     
   1.0115225929171279     
  0.98718179563534181     
  0.93156535619709757     
  0.93811812524828886     
   1.0843287119679808     
   1.0596792406065445     
   1.0350184873049548     
   1.0327167829119215     
   1.0867581940852193     
   1.1062513060980639     
   1.0319918403539745     
  0.90307406840232618     
   1.0440063558816450     
   1.0401597394801458     
  0.84252454612580630     
  0.96573888823751652     
   1.0373292870216464     
   1.1002439993016189     
   1.0500325857456303     
   1.0774589640456103     
  0.99928830666223389     
   1.0325378735760762     
   1.0209470769812579     
  0.87823255859089877     
  0.97360806706723924     
   1.1173191382503214     
   1.0408562610190450     
   1.0375049042884785     
   1.0437686565742001     
  0.95588335391282619     
   1.0663108254547873     
   1.0920951057369528     
   1.0403339789781836     
   1.1110286579628754     
   1.0103223872977074     
  0.94350661956599580     
   1.0360951281415292     
  0.82521825510557412     
   1.0369622101213862     
   1.0376536514439083     
   1.0119730908885622     
   1.0402319444063075     
  0.99120183122357441     
   1.0336656579285703     
   1.1186435242042532     
  0.92390765218348947     
  0.95169799555636558     
   1.0575105395902613     
   1.0850738701680525     
   1.0105850020584022     
   1.0314639387552760     
   1.0314652851373523     
   1.0330363234718674     
   1.1070829795822277     
  0.96518339915442031     
  0.89065371257247317     
  0.80517048525744217     
   1.0270100833866589     
   1.0485337755308373     
   1.0732194659095684     
   1.0968471554436909     
   1.0013638119646782     
   1.0216596889933398     
  0.97993607907896696     
   1.0784298432757393     
  0.88489805562295720     
   1.1142534717676846     
   1.0636343429718569     
   1.0159899697151369     
   1.0466035439269237     
  0.96792005350755883     
   1.0348869595217489     
   1.0349659759018595     
   1.0317982701268520     
   1.0392601326105326     
   1.0924253836521989     
  0.93475641575621415     
   1.1101326693670610     
   1.0129115937901627     
  0.95724847399511515     
  0.99108815918492765     
   1.0340036018646319     
  0.92714252749455672     
   1.0553374490102230     
   1.0332284251388326     
   1.0296618624438303     
  0.80670274122291019     
   1.0610657103782379     
   1.1185880041745946     
   1.0303657763865008     
   1.0385230091039448     
   1.0396707568088788     
   1.0344782559221879     
   1.0823617088710020     
   1.1016924005409034     
  0.97032844572956012     
   1.0279864123589464     
   1.0768687047314660     
   1.1182952346564459     
  0.88889414260928534     
  0.84615325550999343     
   1.0949382156669929     
   1.0685875983638629     
   1.0246652172477311     
   1.0465395313366457     
   1.0319814208108444     
   1.0335596304878816     
   1.0470170214956063     
   1.0341823764684628     
   1.0350147402883754     
   1.0032790836434853     
   1.0263208744124934     
   1.0305333278960571     
   1.0216953518887952     
  0.98238602437916223     
   1.1128782119350615     
   1.0943095260769349     
  0.87181016852323956     
   1.0286460000015551     
   1.0607182679374987     
  0.93722807171040579     
   1.0864565579060135     
  0.94813631460880587     
   1.0381683538659716     
   1.0524812898835056     
   1.1038022334551276     
   1.1159289323232762     
  0.83546625692252818     
   1.0313960581601447     
   1.0303707988989022     
   1.1129004570029861     
   1.0308216975468425     
   1.0355460099164682     
  0.95927598111483403     
   1.0218462731226554     
  0.91336914382473489     
   1.0261023200646358     
   1.0198544576118909     
  0.80461901509435740     
   1.0327644246124499     
   1.0285940658190069     
   1.0122944915014698     
  0.99390154633463801     
   1.0306697164763328     
   1.0803304144474715     
  0.99869329137809337     
   1.0522408922559270     
   1.0338254771905855     
   1.0316393812661293     
   1.0223490839795983     
   1.0340680646525624     
   1.0313475605312517     
   1.0984866769974955     
   1.0300243623875054     
   1.0307669591703701     
   1.1120792028534934     
  0.88626987228423282     
   1.0722135728435316     
  0.97181860348598625     
  0.88353312621434144     
  0.99539740584273706     
   1.0304778965668480     
   1.0317210889560207     
   1.0309845500248327     
   1.0315870405984888     
   1.0653258631984472     
   1.0277053253708610     
   1.0494258152799965     
   1.0443994602451339     
   1.0901702096385335     
   1.0427275478053917     
   1.0037073305944304     
   1.0215333604941657     
   1.0280966251122561     
   1.0203021120243987     
   1.1084917325127681     
   1.1044561141847371     
   1.0155250799701196     
  0.98333915211345202     
  0.87230429975334123     
  0.95136086640049811     
   1.0276511791497660     
   1.1131912368348116     
   1.0196259534670631     
  0.92635732766151402     
   1.0248086187401759     
   1.0571176406562242     
  0.83980886484807815     
   1.0236869736854983     
  0.98236090706766344     
   1.0832421711155822     
   1.0300507540502304     
   1.0362805244783526     
   1.0310697059709268     
   1.0342247059970722     
  0.82200594150969741     
   1.0309446751889260     
   1.0325545141441559     
   1.0167015965127504     
   1.0998813439857886     
   1.0273869261618107     
   1.0406294299708665     
   1.0309770975176478     
   1.1057510585267907     
   1.0288778162310992     
  0.96440515010700478     
   1.0265075149574017     
   1.0360635495969737     
   1.0232054906604269     
  0.91781571211665325     
   1.0753129246103308     
   1.0136057270260008     
   1.0262175930391666     
  0.99384671674443215     
   1.0499315445368507     
   1.0106836674340676     
   1.0294280130898472     
   1.0287232570022262     
   1.0167668732408053     
   1.0918284739423716     
   1.0686420904464109     
   1.0280228681647670     
   1.0289535780501129     
   1.0314965380174064     
   1.0266483740118710     
  0.97532229568897888     
   1.0454371234029090     
   1.0440760401568687     
   1.0165273818859513     
   1.0272560574058720     
   1.1031142338551494     
   1.0202484540870433     
  0.88269047919002575     
   1.1062111068707594     
   1.0277715133418468     
   1.0250425748324283     
   1.0460194330441555     
   1.0610150210891336     
   1.0420173191046966     
   1.0993045320882004     
   1.0334795060983557     
   1.0859425966173946     
   1.0272336219149565     
   1.0208983385176116     
   1.0249691201292963     
   1.0267354416359986     
   1.0033460464993069     
   1.0291021572293577     
   1.0206122214757580     
  0.99447436812837964     
   1.0276430877960363     
  0.82502866090311322     
   1.0386074468318274     
  0.93962058839743245     
   1.0287766600374817     
   1.0299219424998620     
  0.98448381167699117     
   1.0994714046762768     
   1.0263581306520335     
   1.1043028756768500     
  0.95542636077547971     
  0.86689997455988865     
   1.0234321856487856     
   1.0146148877246353     
   1.0235084800740570     
   1.0344374464315662     
  0.84883427796830158     
   1.0541138176998426     
   1.0777372159983893     
   1.0246744120558380     
  0.95647630047539778     
   1.0356350182128722     
  0.93239365677589725     
   1.0153192599729719     
   1.0234120085794298     
   1.0098340613946086     
   1.0180881689881840     
   1.0928697221639725     
   1.0272888390323318     
   1.0252172762359304     
   1.0276515640910882     
  0.96368137736696202     
   1.0236104053978654     
   1.0709840536185686     
   1.0208992550315537     
   1.0184364355830071     
   1.0212140900930566     
   1.0230726748335630     
   1.0283222856263261     
   1.0123668304027313     
   1.0464405233940322     
   1.0242197192773868     
  0.99530954669561122     
   1.0236691649095084     
  0.90301792477729026     
   1.0291880541240710     
   1.0639557481806214     
   1.0387073965917959     
   1.0865166246857654     
   1.0119604257378563     
   1.0279860682308708     
   1.0268751358078112     
   1.0727610410736388     
   1.0246851605463869     
   1.0252212941817911     
   1.0248366342398989     
  0.97551978703161424     
   1.0235852437851398     
   1.0909278480373241     
   1.0126977009489027     
   1.1001601489006034     
   1.0418910104959520     
   1.0322475165560128     
   1.0150104293819664     
   1.0129289854778143     
   1.0226269562043022     
   1.0392967461110976     
   1.0573697931444541     
   1.0286259992013058     
   1.0976976964643934     
   1.0237853507215329     
  0.86974688282509560     
   1.0796819991171105     
   1.0990248284992787     
  0.88610028943036978     
   1.0157368199334869     
   1.0274604415265605     
   1.0260030559622315     
   1.0244770563916081     
  0.95679878868975432     
   1.0339168112001929     
   1.0226664453779004     
   1.0036338939583807     
   1.0214331221262121     
   1.0981915353220741     
  0.94371222521534570     