# vtk DataFile Version 4.2
Incompressible Euler
ASCII
 
DATASET UNSTRUCTURED_GRID
POINTS  5696 DOUBLE
  0.99999999999999800      -6.47363061738125950E-017   0.0000000000000000     
   10.000000000000000       0.50000000000000000        0.0000000000000000     
  0.99805018367148202      -4.47631071561402024E-004   0.0000000000000000     
  0.99594346779770604      -9.26149157330740042E-004   0.0000000000000000     
  0.99366617164320403      -1.43112207646983996E-003   0.0000000000000000     
  0.99120305975290102      -1.95504890027681016E-003   0.0000000000000000     
  0.98853713801732601      -2.48670335152883018E-003   0.0000000000000000     
  0.98562191199673499      -3.02402984140573991E-003   0.0000000000000000     
  0.98243212447240802      -3.56704283327663983E-003   0.0000000000000000     
  0.97894704028788504      -4.11700703252065002E-003   0.0000000000000000     
  0.97514619345531695      -4.67837491338504025E-003   0.0000000000000000     
  0.97100923004943696      -5.26050772055982989E-003   0.0000000000000000     
  0.96651566570067005      -5.87812445094697007E-003   0.0000000000000000     
  0.96164204225212102      -6.53884663812286018E-003   0.0000000000000000     
  0.95636304550707996      -7.24507624007630999E-003   0.0000000000000000     
  0.95065334691540704      -7.99940462376289019E-003   0.0000000000000000     
  0.94448820477638995      -8.80473774659347973E-003   0.0000000000000000     
  0.93784443333151901      -9.66437692920697929E-003   0.0000000000000000     
  0.93070213352157305      -1.05819966280839006E-002   0.0000000000000000     
  0.92304819040825403      -1.15596223197162000E-002   0.0000000000000000     
  0.91488418605174204      -1.25955882548411998E-002   0.0000000000000000     
  0.90624678322987495      -1.36834933695423999E-002   0.0000000000000000     
  0.89726075344581602      -1.48058817285660997E-002   0.0000000000000000     
  0.88818451577838797      -1.59291863324684986E-002   0.0000000000000000     
  0.87918296073381896      -1.70323779661304998E-002   0.0000000000000000     
  0.86771123113989002      -1.84216773873264010E-002   0.0000000000000000     
  0.85213630127709294      -2.02763982870700007E-002   0.0000000000000000     
  0.83227046450278797      -2.25900986738548012E-002   0.0000000000000000     
  0.81239860525585395      -2.48488701130957015E-002   0.0000000000000000     
  0.79252086525691601      -2.70555170351341016E-002   0.0000000000000000     
  0.77263738733900000      -2.92113854854090006E-002   0.0000000000000000     
  0.75274831584069402      -3.13158386413489032E-002   0.0000000000000000     
  0.73285379393048500      -3.33680949136843999E-002   0.0000000000000000     
  0.71295391090995897      -3.53672471177000000E-002   0.0000000000000000     
  0.69304868357971205      -3.73122189912991967E-002   0.0000000000000000     
  0.67313812268197704      -3.92018832078434992E-002   0.0000000000000000     
  0.65322222546859099      -4.10345570189031977E-002   0.0000000000000000     
  0.63330097916826900      -4.28081451190773024E-002   0.0000000000000000     
  0.61337436962250602      -4.45204355208290020E-002   0.0000000000000000     
  0.59344237866926597      -4.61688447224056983E-002   0.0000000000000000     
  0.57350498567594599      -4.77506371868281973E-002   0.0000000000000000     
  0.55356215170846201      -4.92622615687592982E-002   0.0000000000000000     
  0.53361382719436601      -5.06996346862439023E-002   0.0000000000000000     
  0.51365998919267497      -5.20583446458786972E-002   0.0000000000000000     
  0.49370064454305101      -5.33336212958048020E-002   0.0000000000000000     
  0.47386161451805398      -5.45130490111045002E-002   0.0000000000000000     
  0.45441350145219200      -5.55785189699962018E-002   0.0000000000000000     
  0.43534892559747002      -5.65301889439090988E-002   0.0000000000000000     
  0.41666067338771601      -5.73681047293500002E-002   0.0000000000000000     
  0.39834170385402401      -5.80917241560768988E-002   0.0000000000000000     
  0.38038514105542998      -5.87005235694324987E-002   0.0000000000000000     
  0.36278433032731000      -5.91947595006108995E-002   0.0000000000000000     
  0.34553277231719998      -5.95742272635886999E-002   0.0000000000000000     
  0.32862412373212202      -5.98375749416234989E-002   0.0000000000000000     
  0.31205224770286799      -5.99840946904564992E-002   0.0000000000000000     
  0.29581118826637898      -6.00134255089578988E-002   0.0000000000000000     
  0.27990615293740401      -5.99249030064532978E-002   0.0000000000000000     
  0.26436026204579899      -5.97176979070348016E-002   0.0000000000000000     
  0.24916486453967401      -5.93910428387701972E-002   0.0000000000000000     
  0.23431157545055800      -5.89444916822646978E-002   0.0000000000000000     
  0.21979231166187899      -5.83767544619673007E-002   0.0000000000000000     
  0.20559925571684901      -5.76865363208710971E-002   0.0000000000000000     
  0.19172493157145401      -5.68715946972871977E-002   0.0000000000000000     
  0.17816217002216400      -5.59292414825331013E-002   0.0000000000000000     
  0.16490416402368699      -5.48562766238690006E-002   0.0000000000000000     
  0.15191209223343000      -5.36440164766908978E-002   0.0000000000000000     
  0.13913726011126201      -5.22819496769379999E-002   0.0000000000000000     
  0.12660125145605400      -5.07624514857083972E-002   0.0000000000000000     
  0.11432718031223700      -4.90776304171003999E-002   0.0000000000000000     
  0.10233999004831600      -4.72181760157431990E-002   0.0000000000000000     
  9.06668131947580974E-002 -4.51739366346007032E-002   0.0000000000000000     
  7.93374710444112036E-002 -4.29334352400317990E-002   0.0000000000000000     
  6.83854583372612984E-002 -4.04818383186818023E-002   0.0000000000000000     
  5.77054771674528968E-002 -3.77594517176840019E-002   0.0000000000000000     
  4.73259322578018019E-002 -3.47205623761272994E-002   0.0000000000000000     
  3.90528897251879031E-002 -3.19392524284161997E-002   0.0000000000000000     
  3.22120581357258975E-002 -2.93237777370299012E-002   0.0000000000000000     
  2.65431835098984999E-002 -2.68707599265162987E-002   0.0000000000000000     
  2.18271100416322986E-002 -2.45693256081821985E-002   0.0000000000000000     
  1.78861266990913009E-002 -2.24059842883673997E-002   0.0000000000000000     
  1.45796188498930005E-002 -2.03629198204859016E-002   0.0000000000000000     
  1.14881736905057992E-002 -1.81972281584884994E-002   0.0000000000000000     
  8.82914549633244047E-003 -1.60549686534538008E-002   0.0000000000000000     
  6.57129926777600976E-003 -1.39348902982898998E-002   0.0000000000000000     
  4.70375746801844023E-003 -1.18571005612110002E-002   0.0000000000000000     
  3.20908921979542018E-003 -9.84628336074198918E-003   0.0000000000000000     
  2.16640271272869984E-003 -8.12723556121741977E-003   0.0000000000000000     
  1.37621518680806996E-003 -6.50374580242531024E-003   0.0000000000000000     
  8.05103783103060960E-004 -4.99371876731165027E-003   0.0000000000000000     
  4.17788299410523005E-004 -3.60712100331295020E-003   0.0000000000000000     
  1.77184843329112994E-004 -2.34939223863034992E-003   0.0000000000000000     
  4.80224181606489993E-005 -1.22098319250274999E-003   0.0000000000000000     
  3.40958833254106978E-007 -1.02534300866634996E-004   0.0000000000000000     
  2.67070300734010011E-005  9.09832666466583052E-004   0.0000000000000000     
  1.27220159712384992E-004  1.99003744247769994E-003   0.0000000000000000     
  3.26410220357768017E-004  3.18927947781754003E-003   0.0000000000000000     
  6.56981429772620002E-004  4.51640362800142040E-003   0.0000000000000000     
  1.15633949013287996E-003  5.96946562185736006E-003   0.0000000000000000     
  1.86068532554319000E-003  7.54332129774350994E-003   0.0000000000000000     
  2.80729011928343994E-003  9.22451455744359959E-003   0.0000000000000000     
  4.02698113505658983E-003  1.09963355189443002E-002   0.0000000000000000     
  5.54549212880055958E-003  1.28400612135156997E-002   0.0000000000000000     
  7.38326166541617996E-003  1.47367814818066996E-002   0.0000000000000000     
  9.55410188670918065E-003  1.66710728048936989E-002   0.0000000000000000     
  1.20701979966374006E-002  1.86280124772706009E-002   0.0000000000000000     
  1.49394676871821997E-002  2.05973379004759996E-002   0.0000000000000000     
  1.82101295365248994E-002  2.25939308060208004E-002   0.0000000000000000     
  2.20512036186037985E-002  2.46851512020779991E-002   0.0000000000000000     
  2.65785745835467012E-002  2.68870331902804002E-002   0.0000000000000000     
  3.19336031087699007E-002  2.92100397224441012E-002   0.0000000000000000     
  3.82886131067880012E-002  3.16629615078741003E-002   0.0000000000000000     
  4.58521384363438991E-002  3.42514992638998025E-002   0.0000000000000000     
  5.48705405624312983E-002  3.69722442535104986E-002   0.0000000000000000     
  6.52739630588850955E-002  3.97255406997812019E-002   0.0000000000000000     
  7.59503687847169068E-002  4.22074732323493990E-002   0.0000000000000000     
  8.68915769224208046E-002  4.44578227904994031E-002   0.0000000000000000     
  9.81498018834100067E-002  4.65124178846371000E-002   0.0000000000000000     
  0.10974423325378301       4.83932690028959014E-002   0.0000000000000000     
  0.12164844515956701       5.01075366608391970E-002   0.0000000000000000     
  0.13383763391267400       5.16627828429118974E-002   0.0000000000000000     
  0.14628863198199299       5.30663499255236010E-002   0.0000000000000000     
  0.15897989160988801       5.43240505456809020E-002   0.0000000000000000     
  0.17189097934014400       5.54414163711363026E-002   0.0000000000000000     
  0.18500254890215900       5.64232170173797967E-002   0.0000000000000000     
  0.19842447778724501       5.72832070672801980E-002   0.0000000000000000     
[...]
POINT_DATA  5696
SCALARS pressure DOUBLE
LOOKUP_TABLE default
   1.2046669674069037     
   1.0000000000000000     
   1.2117376656636398     
   1.1902127624374768     
   1.1574608694103661     
   1.1314627396896679     
   1.1111072519127534     
   1.0962530828112920     
   1.0870136161901700     
   1.0816933621118101     
   1.0793632204732386     
   1.0782422369287592     
   1.0759460119986777     
   1.0727215590511430     
   1.0693182611476526     
   1.0658204113796113     
   1.0623416278179942     
   1.0587861982985352     
   1.0549752414665086     
   1.0507217986927364     
   1.0462884697379700     
   1.0416966818668556     
   1.0372257965446967     
   1.0324424283358438     
   1.0285057442086698     
   1.0232094116678183     
   1.0171276460690302     
   1.0098190023783788     
   1.0032158547825756     
  0.99691598554092575     
  0.99087327374362599     
  0.98507574004879506     
  0.97949808081116052     
  0.97409832502387073     
  0.96886041461081196     
  0.96370454006146200     
  0.95865980146222007     
  0.95366526715769084     
  0.94878065607797579     
  0.94389422476657114     
  0.93910052767285124     
  0.93425440122635417     
  0.92955796052701345     
  0.92479021278034279     
  0.92030949327714295     
  0.91588911906998871     
  0.91173854292384482     
  0.90782837581431630     
  0.90419197053378830     
  0.90091887352340971     
  0.89811335718796848     
  0.89570487355447648     
  0.89372368451803097     
  0.89243584892768557     
  0.89179474876080544     
  0.89189921476070266     
  0.89275821815311962     
  0.89450585470182942     
  0.89717996624934815     
  0.90061051788370261     
  0.90507519133918857     
  0.91038138040117655     
  0.91670532558053541     
  0.92385447610626292     
  0.93213708054478916     
  0.94155076356375556     
  0.95213806283311220     
  0.96409497288863910     
  0.97771627445062381     
  0.99332356761728324     
   1.0112265467167671     
   1.0316911580820138     
   1.0561686346016215     
   1.0858352826628366     
   1.1175464800408659     
   1.1518664625425785     
   1.1861454543462737     
   1.2202397039492365     
   1.2538332866140380     
   1.2867719382131275     
   1.3202143313172601     
   1.3605785662226988     
   1.4015656288132305     
   1.4421958330605864     
   1.4793898672745980     
   1.5094307048177673     
   1.5269534808945529     
   1.5353849348591291     
   1.5464057594933571     
   1.5337347777274528     
   1.5102055229380891     
   1.4864936021128390     
   1.4591114011468138     
   1.4282077303288456     
   1.3939426155377728     
   1.3517367088354029     
   1.3006077614643441     
   1.2430162458621297     
   1.1807650029681367     
   1.1152980416626328     
   1.0499410257167534     
  0.98832005075064866     
  0.93289989214876123     
  0.88379402323585932     
  0.84111254446145978     
  0.80476942198525647     
  0.77326311950037052     
  0.74526204836498622     
  0.71919094327612165     
  0.69380403378485855     
  0.66842483159706401     
  0.64619872971955972     
  0.62588929133265292     
  0.60235129236295493     
  0.58383711489321521     
  0.56751311850383668     
  0.55307905628006149     
  0.54027501229950603     
  0.52908045757252109     
  0.51975356371681702     
  0.51138793166996910     
  0.50455611256248634     
  0.49864549467005609     
  0.49288831186754245     
  0.48813688676966316     
  0.48337739733713447     
  0.47808133858587704     
  0.47273412990110869     
  0.46692540199670651     
  0.46145573310305255     
  0.45664223378042529     
  0.45239959764361448     
  0.44875772253935270     
  0.44477350880786470     
  0.44078748341081564     
  0.43721597945073609     
  0.43407392339038503     
  0.43109410861291947     
  0.42846220968845039     
  0.42580132699683670     
  0.42349099264589274     
  0.42167644548250366     
  0.42020909958460234     
  0.41863815484279088     
  0.41714183498655116     
  0.41525318882377243     
  0.41402120049510005     
  0.41184999668230488     
  0.41191724724649653     
  0.40837011227793479     
  0.41050467011453068     
  0.40636334118777079     
  0.40328409244621211     
  0.41843126221805022     
  0.49786102820644718     
  0.63511727324014022     
  0.80068639352826887     
  0.94532556147488422     
   1.0188626335589090     
   1.0054235935194027     
   1.0257110880224380     
   1.0271123853329691     
   1.0367546528401543     
   1.0406245542773245     
   1.0464079247711076     
   1.0514250800753671     
   1.0569699141325744     
   1.0621446709365774     
   1.0672115227668504     
   1.0719676201158927     
   1.0765396909719578     
   1.0811306941879542     
   1.0856187598268177     
   1.0900882918897596     
   1.0939092514392887     
   1.0970573960948020     
   1.1011666923196157     
   1.1078770029778997     
   1.1176173203259685     
   1.1293118605213772     
   1.1449499445238103     
   1.1635554671643258     
   1.1780598384407424     
   1.1697127787876158     
   1.0000000000000000     
   1.0000000000000000     
   1.0000000000000000     
   1.0000000000000000     
   1.0000000000000000     
   1.0000000000000000     
   1.0000000000000000     
   1.0000000000000000     
   1.0000000000000000     
   1.0000000000000000     
   1.0000000000000000     
   1.0000000000000000     
   1.0000000000000000     
   1.0000000000000000     
   1.0000000000000000     
   1.0000000000000000     
   1.0000000000000000     
   1.0000000000000000     
   1.0000000000000000     
   1.0000000000000000     
   1.0000000000000000     
   1.0000000000000000     
   1.0000000000000000     
   1.0000000000000000     
   1.0000000000000000     
   1.0000000000000000     
   1.0000000000000000     
   1.0000000000000000     
   1.0000000000000000     
   1.0000000000000000     
   1.0000000000000000     
   1.0000000000000000     
   1.0000000000000000     
   1.0000000000000000     
   1.0000000000000000     
   1.0000000000000000     
   1.0000000000000000     
   1.0000000000000000     
   1.0000000000000000     
   1.0000000000000000     
   1.0000000000000000     
   1.0000000000000000     
   1.0000000000000000     
   1.0000000000000000     
   1.0000000000000000     
   1.0000000000000000     
   1.0000000000000000     
   1.0000000000000000     
   1.0000000000000000     
   1.0000000000000000     
   1.0000000000000000     
   1.0000000000000000     
   1.0000000000000000     
   1.0000000000000000     
   1.0000000000000000     
   1.0000000000000000     
   1.0000000000000000     
   1.0000000000000000     
   1.0000000000000000     
   1.0000000000000000     
   1.0000000000000000     
   1.0000000000000000     
   1.0000000000000000     
   1.0000000000000000     
   1.0000000000000000     
   1.4795342056374672     
   1.4532591684439320     
   1.4229834287362224     
   1.4705951530934642     
   1.5010620734281521     
   1.4451440578030053     
   1.4920575219287591     
   1.3880926096542898     
   1.4159178350719488     
   1.4595773407135400     
   1.4805873105680756     
   1.5075593054098093     
   1.5201519118138227     
   1.4354623767625561     
   1.4974604833229350     
   1.3826208057914184     
   1.4658976921829014     
   1.3475165891543592     
   1.4077628245846658     
   1.4466255450137353     
   1.5188457468342111     
   1.4829344779088121     
   1.5090142351226783     
   1.5321433691512496     
   1.4241788647810452     
   1.4960792738450179     
   1.3451844448746666     
   1.3764541909923609     
   1.4529011490392505     
   1.4683827613637488     
   1.5139636870190532     
   1.3017710244858955     
   1.3980863486497801     
   1.4347373482797598     
   1.4827327280826481     
   1.5299965021292372     
   1.5214539694540061     
   1.4127091374321732     
   1.4973203398752402     
   1.3427829088789114     
   1.4554965499537751     
   1.3053173271145859     
   1.3690881345692318     
   1.4409799798903875     
   1.4652150254218081     
   1.5099164088822121     
   1.2524936288232702     
   1.3872571915343765     
   1.4221425084324399     
   1.4793955528728484     
   1.5251941748098463     
   1.3408101681164841     
   1.3099881608105928     
   1.4458041598447262     
   1.4002442216859441     
   1.4955841026651420     
   1.5265154142839537     
   1.4871539551126467     
   1.3578490739745224     
   1.4286170895148469     
   1.2641076963539126     
   1.4654806455369564     
   1.5111727799001788     
   1.4515736608468472     
   1.4091711073542901     
   1.3749151238228048     
   1.1997427335443185     
   1.4982723360261789     
   1.4715864590873498     
   1.5120360867870557     
   1.3204128890230939     
   1.4851440615662876     
   1.4338484402603533     
   1.2754770515283356     
   1.3872531919934168     
   1.5204304659328027     
   1.4542386498813729     
   1.4155724520568327     
   1.2182730605625940     
   1.3456307409484245     
   1.2173475279638795     
   1.5018944993550536     
   1.4381525579773811     
   1.2280917092767487     
   1.1913339742081697     
   1.2347766888251235     
   1.2529016505561763     
   1.3959172962323958     
   1.3626000684322728     
   1.4877454770962097     
   1.4684267123864643     
   1.1434028698174790     
   1.4560190479172213     
   1.2036866530395687     
   1.1958985902598449     
   1.5067568386866623     
   1.2793894169064282     
   1.1948587426516051     
   1.2017530711462108     
   1.3134664296014009     
   1.4201396241149546     
   1.4975147877867101     
   1.2306721774843015     
   1.3742976956517829     
   1.1932095578076094     
   1.1711100374525196     
   1.4402937764446246     
   1.5009355965816265     
   1.4709643455249222     
   1.4016210464876444     
   1.3352999296630661     
   1.2058424038402824     
   1.1674449156834501     
   1.1859428010738167     
   1.4864307233741667     
   1.1892485644329989     
   1.1730839690114732     
   1.4236800991156937     
   1.4553728513595121     
   1.3822631940111758     
   1.3505684222982000     
   1.4721425108305224     
   1.1760074838443413     
   1.4409454993354636     
   1.2783868943918413     
   1.0868500771395704     
   1.4915961960322093     
   1.2397088561405887     
   1.1541178477353553     
   1.4060410710703684     
   1.3055986408283595     
   1.1822332151092816     
   1.4817435691553449     
   1.1821899650186680     
   1.1879526505898681     
   1.1874614294831565     
   1.1807143340811919     
   1.4556971828369933     
   1.3611512208602723     
   1.1816905754774045     
   1.1767039631854135     
   1.4250071294020761     
   1.1856724661648104     
   1.3873557096315032     
   1.3246450508685479     
   1.4749482986282951     
   1.1605754716378733     
   1.1476495511301519     
   1.4806670351350477     
   1.4702589547855105     
   1.4407690413404444     
   1.4084086299700869     
   1.1187241747388010     
   1.3683525819541673     
   1.3382524864249474     
   1.2445962464965556     
   1.2751320049417894     
   1.4551173864950013     
   1.4247583615501167     
   1.1400592504063998     
   1.1821957350448451     
   1.1588958062653152     
   1.4722165766027355     
   1.3911468823928508     
   1.2028954918548158     
   1.1753140045243315     
   1.1768796928691043     
   1.0329794228939713     
   1.2968837114774492     
   1.1642080742407137     
   1.4641234191887194     
   1.4087707674096452     
   1.4378024482888077     
   1.3478061174124378     
   1.1461227630572572     
   1.3728251458111171     
   1.1456431234362321     
   1.3134478872888553     
   1.4596134907956553     
   1.1737264052657688     
   1.1695581678177176     
   1.1694805016458925     
   1.1252973745675079     
   1.4227584782439631     
   1.4519916985390318     
   1.3925553344844765     
   1.4594504327491398     
   1.1646282862433102     
   1.2471695597203587     
   1.1727034060218522     
   1.0712598447343948     
   1.1667734162514678     
   1.1653393033150645     
   1.3541053401755230     
   1.1662322052097762     
   1.3255971317453272     
   1.1689351104134611     
   1.4311707506347011     
   1.2152409190744076     
   1.2668319442183804     
   1.4073394080598440     
   1.4386028157011561     
   1.1387399667425298     
   1.3758930072614490     
   1.1274006300763060     
   1.1501608441504516     
   1.4533453560320966     
   1.2866322788484970     
   1.1679893512180559     
  0.98256012025813866     
   1.1357122067591341     
   1.3920011120465874     
   1.4160012643343842     
   1.4458830862676562     
   1.3341947346930705     
   1.3582505734598540     
   1.3015480635724261     
   1.4253008422772877     
   1.1042339483803869     
   1.4404778873884940     
   1.4026229903242742     
   1.1463603560320967     
   1.1650765840727695     
   1.1092709605814810     
   1.1620759247876564     
   1.1625957019618380     
   1.1568978519291624     
   1.3764494707751826     
   1.4342774128113751     
   1.2305488096626396     
   1.4385551490975437     
   1.3396957974974524     
   1.2577138618241155     
   1.3125429857979301     
   1.1374389301901562     
   1.1867796125553618     
   1.3894472124733339     
   1.1499907025325402     
   1.1634429678064144     
   1.0253126206258729     
   1.1205887445330600     
   1.3985183852555845     
   1.3604983666402313     
   1.1581591096604504     
   1.1620612396482981     
   1.1586234682388823     
   1.4218712691067297     
   1.4337317361049671     
   1.2755202238138450     
   1.1173580406706671     
   1.4099632587403164     
   1.4128012254958235     
   1.1312690430449786     
  0.93612551013968603     
   1.4263099680737481     
   1.3992847469253886     
   1.1274335096669017     
   1.3751476964060154     
   1.1560717811366805     
   1.1559242213946137     
   1.1508642380326457     
   1.1559858813617885     
   1.1575299462726860     
   1.3202394648064883     
   1.1600848957293155     
   1.1297234706269734     
   1.3435813346439751     
   1.2891507084692655     
   1.4192570050691873     
   1.0967286627349206     
   1.0624784607697568     
   1.1393378007804962     
   1.3861045126628480     
   1.1994718461986076     
   1.4155901602703105     
   1.2305785395156066     
   1.3604394525518009     
   1.1078789426504869     
   1.4182903377564693     
   1.3814566582592562     
  0.98131822780685241     
   1.1489524903962760     
   1.1477060547941318     
   1.3489990057621903     
   1.1528180138249238     
   1.1517498296408279     
   1.2471439623496783     
   1.1088302183570573     
   1.1535748234631240     
   1.1352606198611472     
   1.1515317103301292     
  0.89405964539063665     
   1.1548893739039350     
   1.1273151581184284     
   1.3252778899560038     
   1.2990255871087282     
   1.1487962392183859     
   1.4045099090520217     
   1.1169055042939517     
   1.3722997714315572     
   1.1476023661591288     
   1.1523744201881134     
   1.1179696323398225     
   1.1537809220682200     
   1.1493523724103709     
   1.4139488796255388     
   1.3452278742456543     
   1.1400284637858120     
   1.3886092248714264     
   1.0888256243628540     
   1.3921682368223443     
   1.2638409497624832     
   1.0940949647823475     
   1.0977600759147377     
   1.1459065952488401     
   1.1455997800619171     
   1.1478855324855453     
   1.1466044310573165     
   1.3798562087238975     
   1.1389010281762701     
   1.1201279756575908     
   1.3586070091240023     
   1.4064945637897150     
   1.1488907269094530     
   1.3060718665423625     
   1.3289366376890333     
   1.1310694225212623     
   1.1023317621570357     
   1.3214249113568535     
   1.3983291798870530     
   1.1078726008952893     
   1.2760383674515559     
   1.0220481720267962     
   1.2128589807955983     
   1.1396359728779062     
   1.3546700757051180     
   1.1097034590653991     
   1.1719705584651618     
   1.1417361691262229     
   1.3674991353301724     
  0.85628228246160387     
   1.1169404194274681     
   1.0838287121769918     
   1.3963232697642538     
   1.1439569405181278     
   1.3448199198493687     
   1.1477530290213960     
   1.1484085736793319     
  0.94020380467500353     
   1.1430057821867783     
   1.1425542563138282     
   1.1244514105565433     
   1.3972060911011368     
   1.1406436755671432     
   1.1403103625269824     
   1.1379654572533020     
   1.0903400659142466     
   1.1442151867983053     
   1.2366234562408556     
   1.1407175091704689     
   1.1448973574868766     
   1.1230216488748148     
   1.1207703000133338     
   1.3850848715580049     
   1.3107791686469714     
   1.1313092233615802     
   1.2850444226190876     
   1.3548681324355085     
   1.0978977922194630     
   1.1090803813747863     
   1.3303693591279659     
   1.0974245092740498     
   1.3937529653548648     
   1.3735302361705564     
   1.1380982437974199     
   1.1393195755044432     
   1.1379743943537841     
   1.1381272406681975     
   1.2517198763913178     
   1.0809400282711870     
   1.1281793926528005     
   1.1031441691246964     
   1.1390445976629011     
   1.3721154236806254     
   1.1092554411484234     
   1.0579537259326959     
   1.3523076270948240     
   1.1339151222995401     
   1.1232978420926285     
   1.0854617688407011     
   1.3613896435210338     
   1.3424424119599434     
   1.2909259948002119     
   1.1401701864632199     
   1.3859613637648531     
   1.1350349731718423     
   1.1160749918867505     
   1.1347492215912609     
   1.1295287867440842     
   1.2910689676575049     
   1.1344870928900652     
   1.3146326448852548     
   1.0892017263345455     
   1.1344978932909930     
  0.82165986919089207     
   1.1155354643127771     
   1.1841863260266183     
   1.1331874050621273     
   1.1322492682443777     
   1.2624742287463309     
   1.3773034146870327     
   1.1359198105553054     
   1.3230513566231743     
   1.2122499620606009     
  0.98312227284335341     
   1.1300404993393520     
   1.0932565294140424     
   1.1332304734419474     
   1.0975995867288495     
  0.90147538841640218     
   1.3497377743338033     
   1.3761912008529480     
   1.1359565675683199     
   1.0787505115491309     
   1.3302562528405271     
   1.1433803913693570     
   1.0976214342780564     
   1.1226866264647124     
   1.0828839182657024     
   1.1025994618719084     
   1.3766133896388226     
   1.1307197571476748     
   1.1311130243188035     
   1.1300278408092190     
   1.2249021235134641     
   1.1304223520322803     
   1.3652270821428976     
   1.1045916524288943     
   1.1086737980294972     
   1.1154150807825716     
   1.1187668655504597     
   1.1294323252599665     
   1.2965941053095491     
   1.3380818189152879     
   1.1291457185971194     
   1.2694730551526106     
   1.1272600990531454     
   1.0906643004634511     
   1.3165749670408431     
   1.3543685244585448     
   1.0905341687697274     
   1.3726415121562709     
   1.0888247564471611     
   1.1284659083604009     
   1.1306937478444112     
   1.0757677241911578     
   1.1285461904350182     
   1.0845087740167310     
   1.1306475034515686     
   1.2402289846688133     
   1.1280138878497805     
   1.2582702680949940     
   1.0924620756233760     
   1.3445662889162571     
   1.0794763925509823     
   1.1072802121784782     
   1.0967039310801490     
   1.0959483839499704     
   1.1209065586079603     
   1.3270468141682012     
   1.3431287566946013     
   1.1270379840979678     
   1.3525119963376018     
   1.1270245515765025     
  0.78886979435899929     
   1.3649669766940378     
   1.3220057230831832     
   1.0228770671798508     
   1.1015348261424562     
   1.1249534888611878     
   1.1256694773774294     
   1.1278487225653431     
   1.1954829921312868     
   1.1206678669265804     
   1.1260795495746121     
   1.2761046527369246     
   1.3005648882953460     
   1.2923782388444047     
   1.1614834637592968     