# vtk DataFile Version 4.2
Incompressible Euler
ASCII
 
DATASET UNSTRUCTURED_GRID
POINTS  5696 DOUBLE
  0.99999999999999800      -6.47363061738125950E-017   0.0000000000000000     
   10.000000000000000       0.50000000000000000        0.0000000000000000     
  0.99805018367148202      -4.47631071561402024E-004   0.0000000000000000     
  0.99594346779770604      -9.26149157330740042E-004   0.0000000000000000     
  0.99366617164320403      -1.43112207646983996E-003   0.0000000000000000     
  0.99120305975290102      -1.95504890027681016E-003   0.0000000000000000     
  0.98853713801732601      -2.48670335152883018E-003   0.0000000000000000     
  0.98562191199673499      -3.02402984140573991E-003   0.0000000000000000     
  0.98243212447240802      -3.56704283327663983E-003   0.0000000000000000     
  0.97894704028788504      -4.11700703252065002E-003   0.0000000000000000     
  0.97514619345531695      -4.67837491338504025E-003   0.0000000000000000     
  0.97100923004943696      -5.26050772055982989E-003   0.0000000000000000     
  0.96651566570067005      -5.87812445094697007E-003   0.0000000000000000     
  0.96164204225212102      -6.53884663812286018E-003   0.0000000000000000     
  0.95636304550707996      -7.24507624007630999E-003   0.0000000000000000     
  0.95065334691540704      -7.99940462376289019E-003   0.0000000000000000     
  0.94448820477638995      -8.80473774659347973E-003   0.0000000000000000     
  0.93784443333151901      -9.66437692920697929E-003   0.0000000000000000     
  0.93070213352157305      -1.05819966280839006E-002   0.0000000000000000     
  0.92304819040825403      -1.15596223197162000E-002   0.0000000000000000     
  0.91488418605174204      -1.25955882548411998E-002   0.0000000000000000     
  0.90624678322987495      -1.36834933695423999E-002   0.0000000000000000     
  0.89726075344581602      -1.48058817285660997E-002   0.0000000000000000     
  0.88818451577838797      -1.59291863324684986E-002   0.0000000000000000     
  0.87918296073381896      -1.70323779661304998E-002   0.0000000000000000     
  0.86771123113989002      -1.84216773873264010E-002   0.0000000000000000     
  0.85213630127709294      -2.02763982870700007E-002   0.0000000000000000     
  0.83227046450278797      -2.25900986738548012E-002   0.0000000000000000     
  0.81239860525585395      -2.48488701130957015E-002   0.0000000000000000     
  0.79252086525691601      -2.70555170351341016E-002   0.0000000000000000     
  0.77263738733900000      -2.92113854854090006E-002   0.0000000000000000     
  0.75274831584069402      -3.13158386413489032E-002   0.0000000000000000     
  0.73285379393048500      -3.33680949136843999E-002   0.0000000000000000     
  0.71295391090995897      -3.53672471177000000E-002   0.0000000000000000     
  0.69304868357971205      -3.73122189912991967E-002   0.0000000000000000     
  0.67313812268197704      -3.92018832078434992E-002   0.0000000000000000     
  0.65322222546859099      -4.10345570189031977E-002   0.0000000000000000     
  0.63330097916826900      -4.28081451190773024E-002   0.0000000000000000     
  0.61337436962250602      -4.45204355208290020E-002   0.0000000000000000     
  0.59344237866926597      -4.61688447224056983E-002   0.0000000000000000     
  0.57350498567594599      -4.77506371868281973E-002   0.0000000000000000     
  0.55356215170846201      -4.92622615687592982E-002   0.0000000000000000     
  0.53361382719436601      -5.06996346862439023E-002   0.0000000000000000     
  0.51365998919267497      -5.20583446458786972E-002   0.0000000000000000     
  0.49370064454305101      -5.33336212958048020E-002   0.0000000000000000     
  0.47386161451805398      -5.45130490111045002E-002   0.0000000000000000     
  0.45441350145219200      -5.55785189699962018E-002   0.0000000000000000     
  0.43534892559747002      -5.65301889439090988E-002   0.0000000000000000     
  0.41666067338771601      -5.73681047293500002E-002   0.0000000000000000     
  0.39834170385402401      -5.80917241560768988E-002   0.0000000000000000     
  0.38038514105542998      -5.87005235694324987E-002   0.0000000000000000     
  0.36278433032731000      -5.91947595006108995E-002   0.0000000000000000     
  0.34553277231719998      -5.95742272635886999E-002   0.0000000000000000     
  0.32862412373212202      -5.98375749416234989E-002   0.0000000000000000     
  0.31205224770286799      -5.99840946904564992E-002   0.0000000000000000     
  0.29581118826637898      -6.00134255089578988E-002   0.0000000000000000     
  0.27990615293740401      -5.99249030064532978E-002   0.0000000000000000     
  0.26436026204579899      -5.97176979070348016E-002   0.0000000000000000     
  0.24916486453967401      -5.93910428387701972E-002   0.0000000000000000     
  0.23431157545055800      -5.89444916822646978E-002   0.0000000000000000     
  0.21979231166187899      -5.83767544619673007E-002   0.0000000000000000     
  0.20559925571684901      -5.76865363208710971E-002   0.0000000000000000     
  0.19172493157145401      -5.68715946972871977E-002   0.0000000000000000     
  0.17816217002216400      -5.59292414825331013E-002   0.0000000000000000     
  0.16490416402368699      -5.48562766238690006E-002   0.0000000000000000     
  0.15191209223343000      -5.36440164766908978E-002   0.0000000000000000     
  0.13913726011126201      -5.22819496769379999E-002   0.0000000000000000     
  0.12660125145605400      -5.07624514857083972E-002   0.0000000000000000     
  0.11432718031223700      -4.90776304171003999E-002   0.0000000000000000     
  0.10233999004831600      -4.72181760157431990E-002   0.0000000000000000     
  9.06668131947580974E-002 -4.51739366346007032E-002   0.0000000000000000     
  7.93374710444112036E-002 -4.29334352400317990E-002   0.0000000000000000     
  6.83854583372612984E-002 -4.04818383186818023E-002   0.0000000000000000     
  5.77054771674528968E-002 -3.77594517176840019E-002   0.0000000000000000     
  4.73259322578018019E-002 -3.47205623761272994E-002   0.0000000000000000     
  3.90528897251879031E-002 -3.19392524284161997E-002   0.0000000000000000     
  3.22120581357258975E-002 -2.93237777370299012E-002   0.0000000000000000     
  2.65431835098984999E-002 -2.68707599265162987E-002   0.0000000000000000     
  2.18271100416322986E-002 -2.45693256081821985E-002   0.0000000000000000     
  1.78861266990913009E-002 -2.24059842883673997E-002   0.0000000000000000     
  1.45796188498930005E-002 -2.03629198204859016E-002   0.0000000000000000     
  1.14881736905057992E-002 -1.81972281584884994E-002   0.0000000000000000     
  8.82914549633244047E-003 -1.60549686534538008E-002   0.0000000000000000     
  6.57129926777600976E-003 -1.39348902982898998E-002   0.0000000000000000     
  4.70375746801844023E-003 -1.18571005612110002E-002   0.0000000000000000     
  3.20908921979542018E-003 -9.84628336074198918E-003   0.0000000000000000     
  2.16640271272869984E-003 -8.12723556121741977E-003   0.0000000000000000     
  1.37621518680806996E-003 -6.50374580242531024E-003   0.0000000000000000     
  8.05103783103060960E-004 -4.99371876731165027E-003   0.0000000000000000     
  4.17788299410523005E-004 -3.60712100331295020E-003   0.0000000000000000     
  1.77184843329112994E-004 -2.34939223863034992E-003   0.0000000000000000     
  4.80224181606489993E-005 -1.22098319250274999E-003   0.0000000000000000     
  3.40958833254106978E-007 -1.02534300866634996E-004   0.0000000000000000     
  2.67070300734010011E-005  9.09832666466583052E-004   0.0000000000000000     
  1.27220159712384992E-004  1.99003744247769994E-003   0.0000000000000000     
  3.26410220357768017E-004  3.18927947781754003E-003   0.0000000000000000     
  6.56981429772620002E-004  4.51640362800142040E-003   0.0000000000000000     
  1.15633949013287996E-003  5.96946562185736006E-003   0.0000000000000000     
  1.86068532554319000E-003  7.54332129774350994E-003   0.0000000000000000     
  2.80729011928343994E-003  9.22451455744359959E-003   0.0000000000000000     
  4.02698113505658983E-003  1.09963355189443002E-002   0.0000000000000000     
  5.54549212880055958E-003  1.28400612135156997E-002   0.0000000000000000     
  7.38326166541617996E-003  1.47367814818066996E-002   0.0000000000000000     
  9.55410188670918065E-003  1.66710728048936989E-002   0.0000000000000000     
  1.20701979966374006E-002  1.86280124772706009E-002   0.0000000000000000     
  1.49394676871821997E-002  2.05973379004759996E-002   0.0000000000000000     
  1.82101295365248994E-002  2.25939308060208004E-002   0.0000000000000000     
  2.20512036186037985E-002  2.46851512020779991E-002   0.0000000000000000     
  2.65785745835467012E-002  2.68870331902804002E-002   0.0000000000000000     
  3.19336031087699007E-002  2.92100397224441012E-002   0.0000000000000000     
  3.82886131067880012E-002  3.16629615078741003E-002   0.0000000000000000     
  4.58521384363438991E-002  3.42514992638998025E-002   0.0000000000000000     
  5.48705405624312983E-002  3.69722442535104986E-002   0.0000000000000000     
  6.52739630588850955E-002  3.97255406997812019E-002   0.0000000000000000     
  7.59503687847169068E-002  4.22074732323493990E-002   0.0000000000000000     
  8.68915769224208046E-002  4.44578227904994031E-002   0.0000000000000000     
  9.81498018834100067E-002  4.65124178846371000E-002   0.0000000000000000     
  0.10974423325378301       4.83932690028959014E-002   0.0000000000000000     
  0.12164844515956701       5.01075366608391970E-002   0.0000000000000000     
  0.13383763391267400       5.16627828429118974E-002   0.0000000000000000     
  0.14628863198199299       5.30663499255236010E-002   0.0000000000000000     
  0.15897989160988801       5.43240505456809020E-002   0.0000000000000000     
  0.17189097934014400       5.54414163711363026E-002   0.0000000000000000     
  0.18500254890215900       5.64232170173797967E-002   0.0000000000000000     
  0.19842447778724501       5.72832070672801980E-002   0.0000000000000000     
[...]
POINT_DATA  5696
SCALARS pressure DOUBLE
LOOKUP_TABLE default
   1.0314948147174154     
   1.0000000000000000     
   1.0383817146088166     
   1.0414738865270292     
   1.0343179532965119     
   1.0286488445992137     
   1.0245257004396711     
   1.0214927706251327     
   1.0195220694877347     
   1.0182845060362535     
   1.0177207876941872     
   1.0173495548592930     
   1.0167178991219166     
   1.0159750185806378     
   1.0152425608350613     
   1.0144920741708869     
   1.0137687895299063     
   1.0130340829084619     
   1.0122574672741711     
   1.0114192055815610     
   1.0105440474385488     
   1.0096977914554581     
   1.0088594178329693     
   1.0079749182682092     
   1.0072896489292500     
   1.0063496093980475     
   1.0052852616894188     
   1.0040479205872916     
   1.0029682802046016     
   1.0019397869227904     
   1.0009801291255691     
   1.0000829745188033     
  0.99923853209097013     
  0.99844007366986109     
  0.99767959734078016     
  0.99694965563320104     
  0.99624853506117661     
  0.99557487552972279     
  0.99492574734916173     
  0.99429875469217910     
  0.99368821180085176     
  0.99309981284092541     
  0.99253496710201528     
  0.99199789188951593     
  0.99149279232375642     
  0.99101913254171103     
  0.99059179545428133     
  0.99021055887877285     
  0.98987387663970006     
  0.98960152224201947     
  0.98939387538269852     
  0.98924116700864884     
  0.98915132319480459     
  0.98914904200274867     
  0.98923332320118074     
  0.98939883065363965     
  0.98965912293931013     
  0.99002797022662858     
  0.99052113048963941     
  0.99113888946260120     
  0.99189999145827323     
  0.99280296025165871     
  0.99388513415902235     
  0.99514079373401254     
  0.99662321110798213     
  0.99835438456158654     
   1.0003789931308462     
   1.0027261167915211     
   1.0054886348961023     
   1.0087293392145766     
   1.0125401942530869     
   1.0170397291763711     
   1.0223091328790936     
   1.0293005038843233     
   1.0371258744762664     
   1.0456063215052958     
   1.0542109218344422     
   1.0629320030946203     
   1.0716166869617541     
   1.0800319764144353     
   1.0880090029249150     
   1.0974736414932664     
   1.1068565145995477     
   1.1147204029339837     
   1.1186518448031417     
   1.1213325451506113     
   1.1194050748477278     
   1.1110210838802710     
   1.0992809144503415     
   1.0846478650307891     
   1.0681364599893368     
   1.0530186196170668     
   1.0370043320345261     
   1.0199659435253770     
   1.0025970280970160     
  0.98208637557409006     
  0.95871650818171006     
  0.93431506112858387     
  0.90980412262091626     
  0.88642024233451666     
  0.86616480130891982     
  0.84981844314962807     
  0.83791777237149778     
  0.83001861756291972     
  0.82568055583331545     
  0.82414889914991984     
  0.82426753538331232     
  0.82577643036381199     
  0.83009752581175134     
  0.83405921041989828     
  0.83912817144522267     
  0.84570614014968937     
  0.85142883615582909     
  0.85835754452227930     
  0.86384729435148122     
  0.86949930490954797     
  0.87447682749374156     
  0.87915588676969136     
  0.88340622333559571     
  0.88752049147297041     
  0.89132398195023177     
  0.89495385221404211     
  0.89839214528373490     
  0.90171224328106581     
  0.90493069935936687     
  0.90804174206197918     
  0.91108647841755219     
  0.91404225133468864     
  0.91694208397700028     
  0.91978320889438314     
  0.92259347762440702     
  0.92535282489795545     
  0.92806820330672191     
  0.93073196350736753     
  0.93337957712143127     
  0.93599920570280959     
  0.93857171555940155     
  0.94110634817927574     
  0.94362419945827858     
  0.94612424456238675     
  0.94859354110698679     
  0.95104132075682579     
  0.95347032442086344     
  0.95588270290292920     
  0.95824513743088202     
  0.96053709940961762     
  0.96280480368485000     
  0.96501198928380094     
  0.96718634307504614     
  0.96932284563862869     
  0.97144071640155316     
  0.97355342231561648     
  0.97565997567762264     
  0.97771304036360807     
  0.97990304974062492     
  0.98195153263231816     
  0.98411903109861265     
  0.98635364059232955     
  0.98856007130536971     
  0.99099905651501485     
  0.99337742750092117     
  0.99578520370006429     
  0.99733615218836102     
  0.99872550139158822     
   1.0001513913158397     
   1.0016599521941232     
   1.0031601268265515     
   1.0046630256361211     
   1.0061073470321766     
   1.0074587761871556     
   1.0087642474311118     
   1.0100583746522696     
   1.0113323550547733     
   1.0126058166146132     
   1.0137615183610680     
   1.0146626654496811     
   1.0157533999630388     
   1.0177030575810873     
   1.0204703834715645     
   1.0242748779670081     
   1.0292526347140332     
   1.0354901601792350     
   1.0405341499700909     
   1.0354076610341969     
   1.0000000000000000     
   1.0000000000000000     
   1.0000000000000000     
   1.0000000000000000     
   1.0000000000000000     
   1.0000000000000000     
   1.0000000000000000     
   1.0000000000000000     
   1.0000000000000000     
   1.0000000000000000     
   1.0000000000000000     
   1.0000000000000000     
   1.0000000000000000     
   1.0000000000000000     
   1.0000000000000000     
   1.0000000000000000     
   1.0000000000000000     
   1.0000000000000000     
   1.0000000000000000     
   1.0000000000000000     
   1.0000000000000000     
   1.0000000000000000     
   1.0000000000000000     
   1.0000000000000000     
   1.0000000000000000     
   1.0000000000000000     
   1.0000000000000000     
   1.0000000000000000     
   1.0000000000000000     
   1.0000000000000000     
   1.0000000000000000     
   1.0000000000000000     
   1.0000000000000000     
   1.0000000000000000     
   1.0000000000000000     
   1.0000000000000000     
   1.0000000000000000     
   1.0000000000000000     
   1.0000000000000000     
   1.0000000000000000     
   1.0000000000000000     
   1.0000000000000000     
   1.0000000000000000     
   1.0000000000000000     
   1.0000000000000000     
   1.0000000000000000     
   1.0000000000000000     
   1.0000000000000000     
   1.0000000000000000     
   1.0000000000000000     
   1.0000000000000000     
   1.0000000000000000     
   1.0000000000000000     
   1.0000000000000000     
   1.0000000000000000     
   1.0000000000000000     
   1.0000000000000000     
   1.0000000000000000     
   1.0000000000000000     
   1.0000000000000000     
   1.0000000000000000     
   1.0000000000000000     
   1.0000000000000000     
   1.0000000000000000     
   1.0000000000000000     
   1.0529278183608008     
   1.0380116497137415     
   1.0220478859765656     
   1.0521749777830010     
   1.0664426092657808     
   1.0384469693301770     
   1.0648106964557436     
   1.0047246012091267     
   1.0235916169150561     
   1.0511362858988627     
   1.0630184605465032     
   1.0749095889436233     
   1.0793089738774839     
   1.0385129496754295     
   1.0733585996233186     
   1.0077623476930613     
   1.0608126248594603     
  0.98584366049049732     
   1.0249360467930337     
   1.0500231665883673     
   1.0840279783057494     
   1.0714276527556066     
   1.0812797445145963     
   1.0921148944511703     
   1.0384325991663166     
   1.0816992391772247     
  0.99112764305320822     
   1.0105391104978450     
   1.0583604710560623     
   1.0681816984209320     
   1.0919916904802984     
  0.96601305100694446     
   1.0258333366774135     
   1.0488762142666754     
   1.0784558840259881     
   1.1026265623710847     
   1.1000610921990912     
   1.0379286858076016     
   1.0888901931519377     
  0.99622843125350879     
   1.0646069301789793     
  0.97471486218090331     
   1.0126419540502933     
   1.0570308223719203     
   1.0730552009069940     
   1.0992631644268112     
  0.94608549894445537     
   1.0259594635500147     
   1.0477448348664948     
   1.0827659125019546     
   1.1098633701426359     
   1.0004843050693530     
  0.98366631362064516     
   1.0643636960255884     
   1.0372175829643746     
   1.0947911456772146     
   1.1155294082329099     
   1.0895911242729965     
   1.0126719527710286     
   1.0558325804093973     
  0.95869415913418010     
   1.0779365704067390     
   1.1058987187941685     
   1.0711352151096192     
   1.0464791642744842     
   1.0255606862210127     
  0.92622822256404191     
   1.0994269512011445     
   1.0841981489313208     
   1.1113550224076139     
  0.99544397212165758     
   1.0926251527631741     
   1.0628740753509951     
  0.97119305100977626     
   1.0362463818270711     
   1.1186125890784353     
   1.0763935195499872     
   1.0542265263846893     
   1.0551316872151904     
   1.0125248795315673     
  0.94191044873252994     
   1.1059252317046759     
   1.0689106026340651     
   1.0550956488392342     
   1.0448530956295088     
   1.0562673843429047     
   1.0573804961554483     
   1.0450070133364524     
   1.0251140059105619     
   1.0990665268177386     
   1.0874239451746595     
  0.90715639271665205     
   1.0814788036136149     
   1.0448577337733798     
   1.0425618986210972     
   1.1129384611337747     
  0.98016502416314932     
   1.0431888426170701     
   1.0429616881610999     
  0.99938233319827041     
   1.0607569403105710     
   1.1087704416717807     
  0.95586509384400031     
   1.0351271161406836     
   1.0438194330838149     
   1.0380092689544473     
   1.0741269372987829     
   1.1158214094121808     
   1.0924473194436630     
   1.0522381688994462     
   1.0134885628726362     
   1.0434480481559794     
  0.92587895540845611     
   1.0409943279009455     
   1.1030844010628911     
   1.0416928629765543     
   1.0376609235465177     
   1.0663438151553382     
   1.0856206860591864     
   1.0432638295425434     
   1.0247358965269457     
   1.0966334782761968     
   1.0387812567333026     
   1.0786046944346934     
  0.98643788279109246     
  0.89019971283967847     
   1.1119212325182104     
  0.96701110604794382     
   1.0325054804322413     
   1.0582870100519168     
   1.0017578957150834     
   1.0386590191905753     
   1.1069276379966306     
   1.0403497364558258     
   1.0404375760310260     
  0.94251191991605676     
   1.0390930200205775     
   1.0895383835282970     
   1.0338644159489190     
   1.0399768204980668     
   1.0396192859799538     
   1.0709879864218033     
   1.0397395047162703     
   1.0499614759482583     
   1.0139974382784576     
   1.1167526217540935     
   1.0342381405006988     
   1.0321026192606484     
   1.1123578021654290     
   1.1003471106797305     
   1.0825029030117925     
   1.0633109240698808     
  0.91158534289881454     
   1.0413520672134366     
   1.0240578430833229     
  0.97530304453660954     
  0.99055300346159036     
   1.0935005217876723     
   1.0749851414887728     
   1.0278103275670836     
   1.0383603673422350     
   1.0340999214042852     
   1.1086367736419065     
   1.0554732300425576     
  0.95599932363903661     
   1.0379960929966265     
   1.0385722530580466     
  0.87603995805361023     
   1.0031760244559320     
   1.0348740912129253     
   1.1026954799199828     
   1.0674640563107562     
   1.0858743546689222     
   1.0323827812755999     
   1.0297591965809108     
   1.0474929536661435     
  0.93058360676603780     
   1.0139348058928959     
   1.1136347896350589     
   1.0367069394917281     
   1.0361505726502827     
   1.0365105681216937     
   1.0276449945471833     
   1.0781735564668224     
   1.0965028175285900     
   1.0600471594766512     
   1.1082209780984453     
   1.0346116077013376     
  0.98099155318537667     
   1.0359937025281722     
  0.89920886395569211     
   1.0353676908839946     
   1.0358501749450482     
   1.0392613835820446     
   1.0358849682223741     
   1.0230535485701975     
   1.0358365569730665     
   1.1097844391288676     
  0.96708709908170687     
  0.99202548772015708     
   1.0708863778196474     
   1.0902042907518652     
   1.0299670578942079     
   1.0525562118418428     
   1.0238545625400930     
   1.0308409911190239     
   1.1042709162820044     
   1.0035441070301712     
  0.94625279817467989     
  0.86490471055938423     
   1.0264479080007856     
   1.0637318229625539     
   1.0800091262310050     
   1.0983042981723432     
   1.0306926609236176     
   1.0449400303729830     
   1.0133597751264274     
   1.0846855853534061     
  0.91998174102968577     
   1.1077422963988728     
   1.0735046090200273     
   1.0312812440675079     
   1.0342164767137727     
   1.0241714307224046     
   1.0342621128341014     
   1.0347397973112085     
   1.0322788717495122     
   1.0566731742492319     
   1.0924665679349181     
  0.97861835519718887     
   1.1031539297615272     
   1.0370754050926541     
  0.99274893551494625     
   1.0217390112273170     
   1.0270069031950337     
  0.95977575169253859     
   1.0667418445251493     
   1.0304657321027475     
   1.0337918504961094     
  0.88899929062571759     
   1.0265285767106476     
   1.1040433030854675     
   1.0496014763379939     
   1.0338982976455402     
   1.0341351573182169     
   1.0328649455270678     
   1.0864556690705685     
   1.0990883052233447     
   1.0033301540726207     
   1.0207754239646230     
   1.0807105753068760     
   1.1039815119001866     
  0.93718134332003167     
  0.85684508572228157     
   1.0932746904239645     
   1.0751740062810771     
   1.0238636620023789     
   1.0599861362110019     
   1.0330856069756735     
   1.0333375039510473     
   1.0314895594339306     
   1.0323294452999257     
   1.0330873516184573     
   1.0288396741425310     
   1.0329397408726231     
   1.0279598277726161     
   1.0423639158599471     
   1.0123581563198765     
   1.1017409390321102     
   1.0216904313327271     
  0.91080011393375193     
   1.0273843841401920     
   1.0690061295317645     
  0.97031519689003953     
   1.0876647122140723     
  0.98344441811357541     
   1.0533763660452753     
   1.0239480089192587     
   1.0977228111971742     
   1.0993554950420110     
  0.88117383437137442     
   1.0299066812444464     
   1.0296179445584457     
   1.0932074705860111     
   1.0321253934865602     
   1.0313312450615963     
  0.99288479451447731     
   1.0181863424994346     
  0.95171332476510218     
   1.0287008651885903     
   1.0310991276131316     
  0.85160192587166728     
   1.0317698820016392     
   1.0238828555601931     
   1.0348418953688523     
   1.0201399297518043     
   1.0310769605011667     
   1.0817115797916337     
   1.0256283307391252     
   1.0626306641124870     
   1.0310381546716185     
   1.0317076559347136     
   1.0209848515850377     
   1.0314528313860853     
   1.0301598943290451     
   1.0933604239776673     
   1.0467280234993979     
   1.0274442959920893     
   1.0968744214622319     
   1.0199184935931103     
   1.0760889094192569     
   1.0027178110665105     
  0.92917550663958381     
   1.0218643128913187     
   1.0305690248997013     
   1.0300409928093301     
   1.0307586775665536     
   1.0297310802512987     
   1.0704884629048872     
   1.0288142492386527     
   1.0259563170818196     
   1.0563373162373890     
   1.0879180997965539     
   1.0301874985052328     
   1.0268505788701168     
   1.0398584263060084     
   1.0248782711412558     
   1.0162766996720458     
   1.0869266563545674     
   1.0949768263171358     
   1.0238043802377852     
   1.0109831576999009     
  0.90347937684734025     
  0.98053336303456140     
   1.0271525750035770     
   1.0924059545357399     
   1.0185495221201040     
  0.96392768163106524     
   1.0278040483963891     
   1.0645735036677562     
  0.84876436562521096     
   1.0208002738042889     
   1.0186630349377732     
   1.0823086949807470     
   1.0297847573745660     
   1.0502005931655403     
   1.0301889257945283     
   1.0303001994566312     
  0.87561674699840519     
   1.0296503761277065     
   1.0288275680356227     
   1.0263429554751879     
   1.0915327362721352     
   1.0288175546994709     
   1.0285552350501139     
   1.0288546287707447     
   1.0202198068300719     
   1.0295614212068571     
  0.99272053298452800     
   1.0277379044736348     
   1.0292029844121600     
   1.0224952930232012     
  0.94469719420818188     
   1.0768110025313145     
   1.0326187598539300     
   1.0247965489688806     
   1.0182422231911621     
   1.0586060227273302     
   1.0217048990821480     
   1.0236515990319481     
   1.0440289334421295     
   1.0148375209680212     
   1.0872749198871694     
   1.0712803540893197     
   1.0285325892082859     
   1.0286023496290881     
   1.0279083949516743     
   1.0273281219525270     
   1.0017378780604211     
   1.0179611638511865     
   1.0264507095543929     
   1.0166031362023449     
   1.0279415229539524     
   1.0902442922219124     
   1.0184939129472168     
  0.92268840976402100     
   1.0891653108948061     
   1.0254023368002385     
   1.0225107461727627     
   1.0190259776126240     
   1.0658353685972646     
   1.0528371762441435     
   1.0792696905198385     
   1.0282199236018130     
   1.0821058888865045     
   1.0276029994774383     
   1.0204518013811181     
   1.0258081140750743     
   1.0241264351398187     
   1.0246623998269906     
   1.0274968895880940     
   1.0375808232473784     
   1.0197902783668964     
   1.0265946460553226     
  0.84829219969515557     
   1.0243955649627108     
  0.97311719882887571     
   1.0268905989461121     
   1.0271494599267565     
   1.0092187639761101     
   1.0882645932195869     
   1.0274793316735209     
   1.0849976250178441     
  0.98462180709384772     
  0.89767950217427850     
   1.0262418185504709     
   1.0136118412601800     
   1.0256039571284765     
   1.0214346894594712     
  0.87212306858791577     
   1.0602022383227252     
   1.0769395439876921     
   1.0270479498702885     
   1.0174045745212066     
   1.0472807656648169     
  0.95783374057534165     
   1.0149474416190434     
   1.0221874042462018     
   1.0183965104321648     
   1.0165076115225840     
   1.0851649850224327     
   1.0265255640353490     
   1.0265795033180001     
   1.0257643099373905     
  0.99222705806576361     
   1.0251754296772748     
   1.0714960915523986     
   1.0224608781352449     
   1.0182626700472492     
   1.0201771359155760     
   1.0244431268236731     
   1.0256741003571370     
   1.0305021973849551     
   1.0546386444380720     
   1.0239691898361265     
   1.0158855490428329     
   1.0234275721455874     
  0.93978829729244617     
   1.0417141310020592     
   1.0663444539409110     
   1.0198938952575918     
   1.0809363305763400     
   1.0123520394525853     
   1.0259461730540758     
   1.0259861358704045     
   1.0166929191275924     
   1.0259040451457073     
   1.0186447259438585     
   1.0258428522090630     
   1.0005269735424562     
   1.0238384717641407     
   1.0709003509532551     
   1.0134427672486352     
   1.0849380904455488     
   1.0175545468992282     
   1.0225892871350000     
   1.0147189394151077     
   1.0207293692732895     
   1.0215074075432276     
   1.0493533993760709     
   1.0611760547451734     
   1.0255913736520581     
   1.0841870322782188     
   1.0245400419538724     
  0.84871639938273558     
   1.0761925975896383     
   1.0816380985135545     
  0.91734349459969800     
   1.0161669214061200     
   1.0251086068314059     
   1.0248614489388941     
   1.0255064122422262     
  0.98153367413865955     
   1.0241962047499611     
   1.0235401997575606     
   1.0225774904421858     
   1.0355559753895893     
   1.0771291956102571     
  0.96796377491471797     