# vtk DataFile Version 4.2
Triangle grid example
ASCII

DATASET UNSTRUCTURED_GRID
POINTS 16 float
0.000000e+00 0.000000e+00 0.000000e+00
3.333333e-01 0.000000e+00 0.000000e+00
6.666667e-01 0.000000e+00 0.000000e+00
1.000000e+00 0.000000e+00 0.000000e+00
0.000000e+00 3.333333e-01 0.000000e+00
3.333333e-01 3.333333e-01 0.000000e+00
6.666667e-01 3.333333e-01 0.000000e+00
1.000000e+00 3.333333e-01 0.000000e+00
0.000000e+00 6.666667e-01 0.000000e+00
3.333333e-01 6.666667e-01 0.000000e+00
6.666667e-01 6.666667e-01 0.000000e+00
1.000000e+00 6.666667e-01 0.000000e+00
0.000000e+00 1.000000e+00 0.000000e+00
3.333333e-01 1.000000e+00 0.000000e+00
6.666667e-01 1.000000e+00 0.000000e+00
1.000000e+00 1.000000e+00 0.000000e+00

CELLS 18 72
3 0 1 5
3 0 5 4
3 1 2 6
3 1 6 5
3 2 3 7
3 2 7 6
3 4 5 9
3 4 9 8
3 5 6 10
3 5 10 9
3 6 7 11
3 6 11 10
3 8 9 13
3 8 13 12
3 9 10 14
3 9 14 13
3 10 11 15
3 10 15 14

CELL_TYPES 18
5
5
5
5
5
5
5
5
5
5
5
5
5
5
5
5
5
5

POINT_DATA 16
SCALARS pressure float
LOOKUP_TABLE default
1.0
1.0
1.0
1.0
1.0
1.0
1.0
1.0
1.0
1.0
1.0
1.0
1.0
1.0
1.0
1.0

